! TOUCHSTONE file generated by CST MICROWAVE STUDIO
! Date and time: Sun Sep 21 00:04:55 2025
! Project name: biblioteca3.cst
! Parameters = {t_sub=1000; t_air=800; k=0; n=0; wavelength_nm=0; H=600; Lx=200; Ly=260; P=520}
! Header version: 2018
! Port assignment regex: !\s*Touchstone port\s*([0-9]+)\s*=\s*(CST MWS port|CST DS port)\s*([0-9]+|Zmin|Zmax)\s*\(\"(.*)\"\)(\s*mode\s*([0-9]+))?.*
! Touchstone port assignment:
! Touchstone port 1 = CST MWS port Zmin ("") mode 1
! Touchstone port 2 = CST MWS port Zmin ("") mode 2
! Touchstone port 3 = CST MWS port Zmax ("") mode 1
! Touchstone port 4 = CST MWS port Zmax ("") mode 2
! S-Parameters are not renormalized. Unphysical impedance of 50 will be written to the file.
# GHz S RI R 50
250000                 -0.307278       -0.031184      0.000514419     0.000633531         0.164053        0.936982     -0.000810352    -0.000434991
                     0.000495577     0.000615208       -0.0940264        0.166375     -0.000643089    -0.000457047        -0.976558       0.0983279
                        0.163995         0.93689     -0.000723918    -0.000442618         -0.27839        0.133698      0.000916846     0.000160273
                    -0.000732346    -0.000522591        -0.976673       0.0983117      0.000864133     0.000240613         0.125312        0.144274
250200                 -0.313041      -0.0195932      0.000556647     0.000621156         0.202718        0.927828     -0.000830872    -0.000412284
                     0.000512223     0.000596108       -0.0913112        0.164683     -0.000666409     -0.00043177        -0.973951        0.126195
                        0.202643        0.927804     -0.000745875    -0.000417171        -0.276162        0.148288      0.000933429     0.000140641
                    -0.000761724    -0.000443086        -0.974005        0.126161      0.000889881     0.000222572         0.130264        0.135922
250400                 -0.318104     -0.00765535      0.000599117     0.000606574         0.240937        0.917117     -0.000851041    -0.000388023
                     0.000526267     0.000575784       -0.0887337        0.162916     -0.000688539    -0.000404749        -0.970515         0.15407
                        0.240854        0.917154     -0.000766253    -0.000389495        -0.272957        0.162889      0.000949736     0.000120173
                    -0.000786409    -0.000374055        -0.970519        0.154018      0.000915041     0.000203159         0.134813        0.127346
250600                 -0.322451      0.00458099        0.0006417     0.000589703         0.278652        0.904876     -0.000870743     -0.00036216
                     0.000536918     0.000554186       -0.0862976         0.16108     -0.000709301    -0.000376045        -0.966246        0.181928
                        0.278568        0.904964      -0.00078476    -0.000359746        -0.268767        0.177433      0.000965719     9.88543e-05
                    -0.000807434    -0.000312864        -0.966211        0.181856       0.00093954     0.000182394         0.138948        0.118565
250800                 -0.326069        0.017067      0.000684258     0.000570468         0.315806        0.891132     -0.000889852    -0.000334653
                     0.000543048     0.000531235       -0.0840064        0.159183     -0.000728517     -0.00034574         -0.96114        0.209744
                        0.315725        0.891264     -0.000801127     -0.00032813        -0.263589        0.191849      0.000981326     7.66736e-05
                    -0.000825522    -0.000257652        -0.961074        0.209652      0.000963306     0.000160304         0.142656        0.109596
251000                 -0.328947       0.0297538       0.00072664     0.000548803         0.352344        0.875913     -0.000908232    -0.000305471
                     0.000542985      0.00050679       -0.0818633        0.157231     -0.000746011    -0.000313941        -0.955194        0.237491
                        0.352271        0.876082     -0.000815117    -0.000294899        -0.257426        0.206066      0.000996503     5.36217e-05
                    -0.000841194    -0.000207068        -0.955107        0.237381      0.000986267     0.000136921         0.145927        0.100457
251200                 -0.331078       0.0425925      0.000768685     0.000524653         0.388213         0.85925     -0.000925734    -0.000274591
                     0.000534128     0.000480568       -0.0798712        0.155231     -0.000761618     -0.00028078        -0.948405        0.265144
                         0.38815        0.859447     -0.000826534    -0.000260341        -0.250283        0.220014       0.00101119     2.96928e-05
                    -0.000854829    -0.000160105        -0.948303        0.265017       0.00100835     0.000112278         0.148751       0.0911679
251400                 -0.332458       0.0555344      0.000810221     0.000497972         0.423361        0.841173     -0.000942201    -0.000242005
                     0.000512171     0.000451945       -0.0780328        0.153192     -0.000775185    -0.000246409        -0.940771        0.292677
                        0.423311        0.841393     -0.000835233    -0.000224776        -0.242174        0.233621       0.00102533     4.88514e-06
                    -0.000866709    -0.000115998        -0.940662        0.292535        0.0010295     8.64146e-05         0.151118       0.0817481
251600                 -0.333087        0.068531      0.000851068     0.000468728         0.457739        0.821716     -0.000957465    -0.000207722
                     0.000469419     0.000419401       -0.0763503        0.151119     -0.000786572    -0.000211003        -0.932291        0.320062
                        0.457702        0.821952     -0.000841122    -0.000188542        -0.233116        0.246817       0.00103885    -2.07988e-05
                    -0.000877043     -7.4153e-05        -0.932181        0.319908       0.00104963     5.93737e-05          0.15302       0.0722183
251800                 -0.332965       0.0815344      0.000891035     0.000436904         0.491298        0.800911      -0.00097135    -0.000171765
                     0.000390642     0.000378723       -0.0748256        0.149022      -0.00079566    -0.000174759        -0.922965        0.347273
                        0.491275        0.801156     -0.000844168    -0.000151985        -0.223133        0.259533        0.0010517    -4.73518e-05
                    -0.000885985    -3.41011e-05        -0.922858        0.347109        0.0010687     3.12016e-05         0.154448       0.0625995
252000                 -0.332099       0.0944972      0.000929926     0.000402499          0.52399        0.778791     -0.000983674     -0.00013418
                     0.000241289     0.000315869       -0.0734604        0.146909     -0.000802353    -0.000137888        -0.912795        0.374284
                        0.523981        0.779042     -0.000844392    -0.000115444        -0.212252        0.271699       0.00106379    -7.47612e-05
                    -0.000893651     4.53116e-06        -0.912695        0.374113       0.00108663      1.9486e-06         0.155396       0.0529137
252200                 -0.330496        0.107373      0.000967539     0.000365527         0.555772        0.755393     -0.000994251    -9.50354e-05
                    -7.26354e-05     0.000167684       -0.0722558        0.144786     -0.000806579    -0.000100618         -0.90178        0.401066
                        0.555776        0.755644      -0.00084187    -7.92444e-05        -0.200506         0.28325       0.00107506    -0.000103008
                    -0.000900123     4.20463e-05         -0.90169        0.400891       0.00110337     -2.8332e-05         0.155857       0.0431831
252400                 -0.328165        0.120115       0.00100367     0.000326024         0.586597         0.73075      -0.00100289    -5.44217e-05
                    -0.000808371    -0.000541158       -0.0712128        0.142663     -0.000808294    -6.31864e-05        -0.889924        0.427593
                        0.586613        0.730997     -0.000836722    -4.36874e-05        -0.187935         0.29412       0.00108544    -0.000132069
                     -0.00090546     7.86917e-05        -0.889846        0.427417       0.00111887    -5.95834e-05         0.155828       0.0334306
252600                  -0.32512        0.132679        0.0010381     0.000284042         0.616423          0.7049      -0.00100942    -1.24574e-05
                       0.0012905     -0.00310331       -0.0703318        0.140548     -0.000807487    -2.58372e-05        -0.877229        0.453837
                         0.61645         0.70514     -0.000829112    -9.04034e-06        -0.174582        0.304247       0.00109486     -0.00016191
                    -0.000909699     0.000114671        -0.877166        0.453662       0.00113307     -9.1746e-05         0.155303       0.0236795
252800                 -0.321377         0.14502       0.00107063     0.000239655         0.645207        0.677879      -0.00101364      3.0712e-05
                       0.0022595    -0.000744572       -0.0696128         0.13845     -0.000804173     1.11843e-05        -0.863701        0.479769
                        0.645244         0.67811     -0.000819233     2.44667e-05        -0.160495        0.313572       0.00110324    -0.000192494
                    -0.000912861     0.000150153        -0.863651        0.479599       0.00114593    -0.000124757         0.154281       0.0139537
253000                 -0.316953        0.157097       0.00110104     0.000192958         0.672909        0.649727      -0.00101541     7.49128e-05
                       0.0018529    -0.000241209       -0.0690556        0.136376       -0.0007984     4.76353e-05        -0.849343        0.505363
                        0.672953        0.649945     -0.000807301     5.66446e-05        -0.145727        0.322037        0.0011105    -0.000223773
                    -0.000914951     0.000185279        -0.849308          0.5052       0.00115739    -0.000158553         0.152759      0.00427741
253200                  -0.31187        0.168867       0.00112915     0.000144065         0.699487         0.62048      -0.00101456     0.000119943
                      0.00164553    -0.000120437       -0.0686594        0.134336     -0.000790248     8.32812e-05        -0.834161        0.530591
                        0.699537        0.620684     -0.000793545     8.73461e-05        -0.130334        0.329591       0.00111659    -0.000255693
                    -0.000915965     0.000220165         -0.83414        0.530436       0.00116743    -0.000193065         0.150737     -0.00532488
253400                 -0.306151         0.18029       0.00115474     9.31126e-05         0.724903        0.590179      -0.00101097     0.000165574
                      0.00153279     -9.2745e-05       -0.0684231        0.132338     -0.000779824     0.000117899        -0.818163        0.555424
                        0.724956        0.590368       -0.0007782     0.000116465         -0.11438        0.336184       0.00112141    -0.000288191
                    -0.000915886      0.00025491        -0.818155         0.55528         0.001176    -0.000228224         0.148216      -0.0148283
253600                 -0.299821        0.191328       0.00117764     4.02568e-05         0.749116        0.558865      -0.00100454     0.000211551
                      0.00146524    -9.92777e-05        -0.068345         0.13039     -0.000767259     0.000151283        -0.801356        0.579834
                        0.749171        0.559038     -0.000761499     0.000143932       -0.0979279        0.341773       0.00112493    -0.000321195
                    -0.000914687     0.000289591        -0.801359        0.579702       0.00118306     -0.00026396         0.145196      -0.0242078
253800                 -0.292909        0.201944       0.00119767    -1.43263e-05          0.77209        0.526578      -0.00099521     0.000257598
                      0.00142165     -0.00012202       -0.0684231        0.128502     -0.000752712     0.000183246        -0.783748        0.603793
                        0.772146        0.526735     -0.000743668     0.000169715        -0.081048        0.346315       0.00112706    -0.000354626
                    -0.000912335     0.000324275        -0.783761        0.603675        0.0011886    -0.000300199         0.141683       -0.033438
254000                 -0.285444        0.212103       0.00121468    -7.04426e-05         0.793786        0.493363     -0.000982955      0.00030342
                       0.0013917     -0.00015387        -0.068655        0.126682     -0.000736358     0.000213624         -0.76535        0.627274
                        0.793841        0.493502     -0.000724919     0.000193811       -0.0638124        0.349777       0.00112776    -0.000388395
                    -0.000908787     0.000359012         -0.76537        0.627169       0.00119257    -0.000336869         0.137679      -0.0424937
254200                  -0.27746        0.221771       0.00122851    -0.000127881         0.814169        0.459262     -0.000967803     0.000348711
                      0.00136979    -0.000191506       -0.0690378        0.124939      -0.00071839     0.000242279        -0.746172        0.650248
                         0.81422        0.459384     -0.000705451     0.000216242       -0.0462963        0.352128       0.00112697    -0.000422408
                    -0.000903994      0.00039384        -0.746197        0.650157       0.00119496    -0.000373892         0.133191      -0.0513493
254400                 -0.268991        0.230919       0.00123904    -0.000186415         0.833201        0.424321     -0.000949836      0.00039316
                      0.00135264     -0.00023316       -0.0695681        0.123282     -0.000699013     0.000269098        -0.726226        0.672687
                        0.833249        0.424427     -0.000685441     0.000237053       -0.0285777        0.353342       0.00112466     -0.00045656
                    -0.000897902     0.000428785        -0.726254        0.672609       0.00119575    -0.000411195         0.128227      -0.0599796
254600                 -0.260073        0.239517       0.00124618    -0.000245807         0.850849        0.388587     -0.000929202     0.000436463
                      0.00133814    -0.000277789        -0.070242        0.121718     -0.000678439     0.000293996        -0.705524        0.694564
                        0.850891        0.388677     -0.000665052     0.000256303       -0.0107368        0.353402        0.0011208    -0.000490743
                    -0.000890447      0.00046386        -0.705552        0.694499       0.00119493    -0.000448699         0.122793      -0.0683591
254800                 -0.250745        0.247539       0.00124983    -0.000305806         0.867077        0.352107      -0.00090612     0.000478335
                      0.00132489    -0.000324716       -0.0710553        0.120256     -0.000656884     0.000316916        -0.684081        0.715851
                        0.867112        0.352182     -0.000644422     0.000274067       0.00714434        0.352293       0.00111536    -0.000524841
                    -0.000881565     0.000499068        -0.684106        0.715797       0.00119248    -0.000486328           0.1169      -0.0764627
255000                 -0.241046        0.254961       0.00124994    -0.000366155         0.881852        0.314932     -0.000880893     0.000518525
                      0.00131191    -0.000373461       -0.0720032        0.118905     -0.000634565     0.000337827         -0.66191         0.73652
                         0.88188        0.314992     -0.000623675     0.000290425        0.0249823        0.350008       0.00110833    -0.000558734
                    -0.000871184     0.000534399         -0.66193        0.736476        0.0011884    -0.000524003          0.11056      -0.0842655
255200                  -0.23102        0.261763       0.00124648    -0.000426591         0.895141        0.277112      -0.00085392     0.000556848
                      0.00129847    -0.000423654       -0.0730806        0.117673     -0.000611694     0.000356723        -0.639028        0.756545
                        0.895161        0.277159     -0.000602915     0.000305466        0.0426925        0.346545       0.00109972    -0.000592299
                     -0.00085923      0.00056983        -0.639041        0.756508       0.00118269    -0.000561648         0.103785       -0.091743
255400                 -0.220708        0.267926       0.00123943     -0.00048685         0.906913        0.238701     -0.000825713     0.000593219
                      0.00128401     -0.00047499       -0.0742817        0.116567     -0.000588476     0.000373623        -0.615452        0.775899
                        0.906924        0.238736     -0.000582227     0.000319279          0.06019        0.341909       0.00108955    -0.000625412
                    -0.000845624     0.000605328        -0.615456        0.775866       0.00117534    -0.000599185        0.0965883      -0.0988709
255600                 -0.210156        0.273434       0.00122881    -0.000546667         0.917136        0.199754      -0.00079691     0.000627723
                      0.00126813    -0.000527199       -0.0756005        0.115595      -0.00056511     0.000388566        -0.591199        0.794554
                        0.917139        0.199778     -0.000561683     0.000331956        0.0773896        0.336112       0.00107783    -0.000657949
                    -0.000830287     0.000640846        -0.591192        0.794523       0.00116636    -0.000636536        0.0889861       -0.105626
255800                 -0.199408        0.278277       0.00121465     -0.00060578         0.925783        0.160328     -0.000768289     0.000660733
                      0.00125046    -0.000580031       -0.0770303        0.114766      -0.00054178     0.000401615        -0.566289        0.812485
                        0.925776        0.160342      -0.00054134     0.000343587        0.0942065        0.329171       0.00106463    -0.000689785
                    -0.000813137     0.000676322         -0.56627        0.812452       0.00115575    -0.000673624         0.080995       -0.111984
256000                 -0.188511        0.282443       0.00119703    -0.000663934         0.932825        0.120482     -0.000740728     0.000693114
                      0.00123074    -0.000633247       -0.0785641        0.114086     -0.000518659     0.000412845        -0.540742        0.829665
                        0.932809        0.120487     -0.000521242     0.000354259         0.110557        0.321111       0.00104999    -0.000720801
                    -0.000794095     0.000711681        -0.540709        0.829628       0.00114354    -0.000710373        0.0726331       -0.117923
256200                 -0.177513        0.285929       0.00117601    -0.000720881         0.938236       0.0802769     -0.000715021     0.000726587
                      0.00120874    -0.000686611       -0.0801945        0.113562     -0.000495903     0.000422351        -0.514579         0.84607
                         0.93821       0.0802743     -0.000501424     0.000364057         0.126358        0.311961       0.00103398    -0.000750885
                     -0.00077308     0.000746836        -0.514532        0.846025       0.00112972    -0.000746707        0.0639199       -0.123422
256400                 -0.166459        0.288731        0.0011517    -0.000776384         0.941991        0.039776     -0.000691253     0.000764245
                      0.00118428    -0.000739886       -0.0819134        0.113201     -0.000473656     0.000430237        -0.487823        0.861674
                        0.941956       0.0397671     -0.000481909     0.000373062          0.14153        0.301759        0.0010167    -0.000779929
                    -0.000750017      0.00078168        -0.487761        0.861618       0.00111433     -0.00078255        0.0548762       -0.128459
256600                 -0.155399         0.29085       0.00112423    -0.000830218         0.944069    -0.000955271      -0.00066709     0.000810837
                      0.00115723    -0.000792836       -0.0837126         0.11301     -0.000452045     0.000436619        -0.460496        0.876454
                        0.944025    -0.000969326     -0.000462713     0.000381349         0.155994        0.290547      0.000998232    -0.000807837
                    -0.000724834     0.000816095        -0.460419        0.876382       0.00109738    -0.000817829        0.0455242       -0.133014
256800                  -0.14438        0.292291       0.00109374    -0.000882173         0.944448      -0.0418495     -0.000634508     0.000870864
                      0.00112748    -0.000845218       -0.0855832        0.112994     -0.000431178     0.000441621        -0.432623        0.890385
                        0.944397      -0.0418676     -0.000443844     0.000388991         0.169675        0.278375      0.000978695    -0.000834522
                    -0.000697468     0.000849945        -0.432533        0.890294       0.00107889     -0.00085247        0.0358872       -0.137069
257000                 -0.133448        0.293061       0.00106037    -0.000932053         0.943113      -0.0828369     -0.000578617     0.000940602
                      0.00109494    -0.000896787        -0.087516        0.113159     -0.000411151     0.000445374         -0.40423        0.903444
                        0.943054      -0.0828581     -0.000425305     0.000396053         0.182502        0.265299      0.000958204    -0.000859912
                    -0.000667864     0.000883081        -0.404127        0.903331       0.00105891    -0.000886401        0.0259899       -0.140605
257200                 -0.122651        0.293172        0.0010243     -0.00097968         0.940046       -0.123846     -0.000490371     0.000999339
                      0.00105957    -0.000947296       -0.0895015        0.113511     -0.000392043     0.000448013        -0.375343        0.915609
                         0.93998       -0.123869     -0.000407093     0.000402599         0.194405        0.251379      0.000936888    -0.000883947
                    -0.000635978     0.000915334        -0.375229         0.91547       0.00103745    -0.000919552        0.0158582       -0.143605
257400                 -0.112033        0.292638      0.000985693     -0.00102489         0.935237       -0.164803     -0.000385267       0.0010249
                      0.00102134    -0.000996493       -0.0915296        0.114054     -0.000373916     0.000449675         -0.34599        0.926859
                        0.935165       -0.164827     -0.000389202     0.000408684         0.205322        0.236682      0.000914882    -0.000906586
                    -0.000601781     0.000946526        -0.345866        0.926691       0.00101455    -0.000951852       0.00551891       -0.146054
257600                 -0.101641        0.291479      0.000944749     -0.00106754         0.928676       -0.205632      -0.00028846      0.00101918
                     0.000980272     -0.00104413       -0.0935899        0.114793     -0.000356819       0.0004505          -0.3162        0.937173
                        0.928599       -0.205657     -0.000371621     0.000414363         0.215193        0.221279      0.000892324      -0.0009278
                    -0.000565261     0.000976462        -0.316069        0.936972      0.000990244    -0.000983234      -0.00499976       -0.147937
257800                -0.0915155        0.289714      0.000901654     -0.00110751         0.920359       -0.246256     -0.000209634     0.000998117
                     0.000936387     -0.00108995       -0.0956719        0.115732     -0.000340786     0.000450627        -0.286002         0.94653
                        0.920276        -0.24628     -0.000354338     0.000419684         0.223966        0.205247      0.000869358     -0.00094758
                    -0.000526426      0.00100494        -0.285866        0.946294      0.000964581     -0.00101363       -0.0156688       -0.149242
258000                -0.0816996        0.287369      0.000856606     -0.00114468         0.910282       -0.286595     -0.000145956     0.000973034
                     0.000889747     -0.00113371       -0.0977644        0.116874     -0.000325837     0.000450195        -0.255426        0.954911
                        0.910196       -0.286619     -0.000337337     0.000424692         0.231593        0.188667      0.000846126    -0.000965934
                    -0.000485304      0.00103173        -0.255289        0.954639      0.000937599     -0.00104297       -0.0264581       -0.149957
258200                -0.0722322        0.284472      0.000809802     -0.00117896         0.898448        -0.32657     -9.23174e-05     0.000948325
                     0.000840438     -0.00117516        -0.099856        0.118221     -0.000311979      0.00044934        -0.224505          0.9623
                        0.898359       -0.326593     -0.000320602     0.000429428         0.238033        0.171623       0.00082277    -0.000982889
                     -0.00044195      0.00105662         -0.22437        0.961988      0.000909346      -0.0010712       -0.0373368       -0.150072
258400                -0.0631505        0.281054      0.000761443     -0.00121028         0.884863       -0.366099     -4.50232e-05     0.000924925
                     0.000788571     -0.00121406        -0.101935        0.119777     -0.000299206     0.000448196        -0.193271        0.968678
                        0.884772       -0.366119     -0.000304113      0.00043393         0.243251        0.154205      0.000799429    -0.000998487
                    -0.000396445      0.00107939        -0.193141        0.968326       0.00087987     -0.00109826       -0.0482731       -0.149578
258600                -0.0544892        0.277148      0.000711728     -0.00123857         0.869538       -0.405099     -1.90907e-06      0.00090262
                     0.000734281     -0.00125018         -0.10399        0.121543     -0.000287502     0.000446894        -0.161757         0.97403
                        0.869446       -0.405117     -0.000287852     0.000438232         0.247218        0.136503      0.000776234     -0.00101279
                    -0.000348899      0.00109979        -0.161636        0.973637      0.000849223     -0.00112408       -0.0592345        -0.14847
258800                -0.0462803         0.27279      0.000660852     -0.00126379         0.852488       -0.443486      3.82108e-05     0.000880971
                     0.000677727     -0.00128331        -0.106008         0.12352     -0.000276836     0.000445561        -0.129997         0.97834
                        0.852396       -0.443502     -0.000271796     0.000442367         0.249915        0.118611       0.00075331     -0.00102588
                    -0.000299452       0.0011176        -0.129889        0.977906       0.00081746      -0.0011486        -0.070188       -0.146742
259000                -0.0385526        0.268019       0.00060901      -0.0012859         0.833732       -0.481177      7.59749e-05     0.000859591
                      0.00061909     -0.00131324        -0.107977        0.125709      -0.00026717     0.000444318       -0.0980273        0.981596
                        0.833641        -0.48119     -0.000255926     0.000446365         0.251328        0.100624      0.000730774     -0.00103785
                    -0.000248275      0.00113261        -0.097936        0.981121      0.000784638     -0.00117177       -0.0810998        -0.14439
259200                -0.0313321        0.262876       0.00055639     -0.00130489         0.813295       -0.518088      0.000111729     0.000838204
                     0.000558573     -0.00133977        -0.109884        0.128109     -0.000258452     0.000443281       -0.0658825        0.983785
                        0.813206       -0.518099     -0.000240219     0.000450251          0.25145       0.0826395      0.000708728     -0.00104881
                     -0.00019557      0.00114461       -0.0658119        0.983269      0.000750819     -0.00119353       -0.0919359       -0.141414
259400                -0.0246412        0.257403      0.000503177     -0.00132074         0.791207       -0.554136      0.000145666     0.000816636
                     0.000496399     -0.00136273        -0.111717         0.13072     -0.000250622      0.00044256       -0.0335995        0.984896
                        0.791121       -0.554145     -0.000224653     0.000454052         0.250286       0.0647545      0.000687263     -0.00105889
                    -0.000141569      0.00115342       -0.0335534        0.984341      0.000716064     -0.00121383        -0.102662       -0.137814
259600                -0.0184988        0.251644      0.000449549     -0.00133345         0.767502       -0.589238      0.000177897     0.000794788
                     0.000432808     -0.00138197        -0.113463        0.133541      -0.00024361     0.000442258       -0.0012156        0.984919
                         0.76742       -0.589244     -0.000209206      0.00045779         0.247843       0.0470659      0.000666455     -0.00106823
                     -8.6534e-05      0.00115886      -0.00119768        0.984326      0.000680441     -0.00123263        -0.113243       -0.133593
259800                -0.0129202        0.245645      0.000395679     -0.00134302          0.74222       -0.623313      0.000208496     0.000772618