! TOUCHSTONE file generated by CST MICROWAVE STUDIO
! Date and time: Sun Sep 21 00:06:31 2025
! Project name: biblioteca3.cst
! Parameters = {t_sub=1500; t_air=800; k=0; n=0; wavelength_nm=0; H=600; Lx=200; Ly=260; P=520}
! Header version: 2018
! Port assignment regex: !\s*Touchstone port\s*([0-9]+)\s*=\s*(CST MWS port|CST DS port)\s*([0-9]+|Zmin|Zmax)\s*\(\"(.*)\"\)(\s*mode\s*([0-9]+))?.*
! Touchstone port assignment:
! Touchstone port 1 = CST MWS port Zmin ("") mode 1
! Touchstone port 2 = CST MWS port Zmin ("") mode 2
! Touchstone port 3 = CST MWS port Zmax ("") mode 1
! Touchstone port 4 = CST MWS port Zmax ("") mode 2
! S-Parameters are not renormalized. Unphysical impedance of 50 will be written to the file.
# GHz S RI R 50
250000                 -0.346364       -0.167033      0.000561572     5.12795e-05         0.264377        0.884439      5.39938e-05     0.000217324
                     0.000551303     0.000138407       -0.0946125      -0.0399109      0.000356666     0.000155781         -0.95896         0.26431
                        0.264397        0.884505      0.000397626     0.000187387        -0.197901         0.32969      0.000328914     0.000488588
                    -1.74169e-05     0.000226678        -0.958962         0.26422      0.000325886     0.000517106        0.0608147      -0.0827776
250200                 -0.352368        -0.15221      0.000564949     4.11875e-05         0.304406        0.871796      6.38631e-05     0.000226783
                     0.000564264     0.000115628       -0.0950347      -0.0418535        0.0003689     0.000141662        -0.949349        0.296643
                        0.304427        0.871825      0.000413755     0.000167063        -0.181098        0.338418      0.000353641     0.000495684
                    -1.03516e-05     0.000232717        -0.949368        0.296564      0.000347258     0.000512375        0.0543164      -0.0885399
250400                 -0.357467       -0.137078      0.000567379      3.0612e-05         0.343988          0.8574      7.50699e-05     0.000235735
                     0.000576082     9.15689e-05       -0.0956732      -0.0437857       0.00038059     0.000126414        -0.938606        0.328666
                        0.344006        0.857407      0.000428519     0.000145071         -0.16368        0.346083      0.000379508     0.000499614
                    -2.73249e-06     0.000238795        -0.938636        0.328598      0.000368707     0.000506619        0.0474822      -0.0939251
250600                  -0.36164         -0.1217      0.000568692     1.95044e-05         0.383053        0.841257      8.75862e-05     0.000244005
                     0.000586618     6.62886e-05        -0.096528      -0.0456938      0.000391623     0.000110048        -0.926739        0.360339
                        0.383068        0.841256      0.000441704     0.000121547        -0.145721        0.352636      0.000406037     0.000500473
                     5.48233e-06     0.000244888        -0.926778        0.360282      0.000390178     0.000499813        0.0403327      -0.0989146
250800                 -0.364872       -0.106141      0.000568693     7.79593e-06         0.421531        0.823375      0.000101357     0.000251423
                     0.000595731     3.98629e-05        -0.097598      -0.0475641       0.00040188     9.25866e-05        -0.913759        0.391621
                        0.421543        0.823376      0.000453111     9.66671e-05        -0.127297        0.358029      0.000432833     0.000498399
                     1.43374e-05     0.000250968        -0.913804        0.391574      0.000411616     0.000491931        0.0328895        -0.10349
251000                 -0.367149      -0.0904653       0.00056717    -4.61078e-06         0.459349        0.803763      0.000116303     0.000257827
                     0.000603285     1.23853e-05       -0.0988815      -0.0493829      0.000411243     7.40666e-05         -0.89968        0.422473
                        0.459362        0.803775      0.000462573     7.06371e-05         -0.10849        0.362221      0.000459571     0.000493554
                     2.38796e-05        0.000257        -0.899727        0.422435      0.000432961     0.000482954        0.0251753       -0.107636
251200                 -0.368465      -0.0747408      0.000563893    -1.78512e-05         0.496436        0.782433       0.00013232     0.000263067
                     0.000609151     -1.6033e-05        -0.100376      -0.0511368      0.000419595     5.45402e-05        -0.884514        0.452856
                        0.496453        0.782463      0.000469956     4.36903e-05       -0.0893841        0.365177      0.000485983     0.000486108
                      3.4158e-05     0.000262942        -0.884561        0.452825       0.00045415     0.000472861        0.0172136       -0.111337
251400                 -0.368818      -0.0590345       0.00055863    -3.21099e-05         0.532715        0.759399      0.000149286     0.000267011
                     0.000613207    -4.52636e-05        -0.102078      -0.0528121      0.000426819     3.40753e-05        -0.868276        0.482729
                        0.532741        0.759451      0.000475164     1.60787e-05       -0.0700691        0.366867      0.000511852     0.000476227
                     4.52236e-05     0.000268744        -0.868321        0.482705       0.00047512     0.000461639       0.00902892       -0.114578
251600                 -0.368209      -0.0434143       0.00055116    -4.76305e-05         0.568111        0.734677      0.000167059     0.000269545
                     0.000615344     -7.5161e-05        -0.103983      -0.0543955      0.000432807     1.27549e-05        -0.850983        0.512055
                         0.56815        0.734753      0.000478146    -1.19347e-05       -0.0506359         0.36727      0.000536999     0.000464073
                     5.71284e-05     0.000274347        -0.851024        0.512035      0.000495801     0.000449276      0.000646432       -0.117346
251800                 -0.366647      -0.0279479      0.000541303    -6.47215e-05         0.602545        0.708287       0.00018549      0.00027058
                     0.000615467    -0.000105565        -0.106087      -0.0558739      0.000437457    -9.32271e-06        -0.832653        0.540795
                        0.602603        0.708387      0.000478892    -4.00851e-05       -0.0311786        0.366368       0.00056127     0.000449799
                     6.99251e-05     0.000279683        -0.832689        0.540779      0.000516125     0.000435764       -0.0079079       -0.119632
252000                 -0.364144      -0.0127031      0.000528954    -8.37511e-05          0.63594         0.68025      0.000204418     0.000270045
                     0.000613495      -0.0001363        -0.108384      -0.0572342      0.000440678    -3.20455e-05        -0.813306        0.568911
                         0.63602        0.680374      0.000477437    -6.81146e-05       -0.0117934        0.364152      0.000584538     0.000433548
                     8.36654e-05     0.000284671        -0.813335        0.568897      0.000536018       0.0004211       -0.0166075       -0.121424
252200                 -0.360717      0.00225299      0.000514132    -0.000105125         0.668214        0.650594      0.000223682     0.000267895
                     0.000609368    -0.000167181        -0.110867      -0.0584639      0.000442392    -5.52888e-05         -0.79296        0.596368
                         0.66832        0.650738      0.000473851    -9.57803e-05       0.00742183        0.360621      0.000606687     0.000415453
                     9.83994e-05     0.000289216        -0.792982        0.596354      0.000555406     0.000405285       -0.0254251       -0.122714
252400                 -0.356388       0.0168542      0.000497013    -0.000129237         0.699285        0.619349      0.000243119     0.000264103
                     0.000603045    -0.000198012         -0.11353      -0.0595505      0.000442536    -7.89175e-05         -0.77164        0.623128
                         0.69942        0.619509      0.000468244    -0.000122861        0.0263681         0.35578      0.000627618     0.000395641
                     0.000114173     0.000293208        -0.771654        0.623113      0.000574214     0.000388324       -0.0343332       -0.123496
252600                 -0.351185       0.0310356      0.000477957    -0.000156398          0.72907        0.586547       0.00026257     0.000258664
                     0.000594508     -0.00022859        -0.116364       -0.060482      0.000441062    -0.000102788        -0.749367        0.649155
                        0.729236         0.58672      0.000460751    -0.000149163        0.0449457        0.349642      0.000647236     0.000374232
                     0.000131025     0.000296524        -0.749372        0.649138      0.000592362     0.000370227       -0.0433035       -0.123763
252800                 -0.345141       0.0447341      0.000457492    -0.000186738         0.757486        0.552229      0.000281882     0.000251588
                     0.000583759    -0.000258709        -0.119361      -0.0612468      0.000437943    -0.000126751        -0.726166        0.674416
                        0.757683        0.552408      0.000451528    -0.000174524        0.0630551        0.342229      0.000665457     0.000351343
                     0.000148985      0.00029902        -0.726164        0.674395      0.000609771      0.00035101       -0.0523077       -0.123512
253000                 -0.338293       0.0578886      0.000436246    -0.000220128         0.784448        0.516438      0.000300911     0.000242902
                     0.000570826    -0.000288162        -0.122512      -0.0618336      0.000433167    -0.000150655        -0.702063        0.698876
                        0.784675        0.516618      0.000440748    -0.000198814        0.0805971        0.333569      0.000682198     0.000327085
                     0.000168071     0.000300535        -0.702053         0.69885      0.000626361     0.000330694        -0.061317        -0.12274
253200                 -0.330683       0.0704405      0.000414838    -0.000256128          0.80987        0.479222       0.00031952     0.000232644
                     0.000555759    -0.000316746        -0.125806      -0.0622319      0.000426742    -0.000174349        -0.677085        0.722502
                        0.810125        0.479397       0.00042859    -0.000221935        0.0974738        0.323699      0.000697383     0.000301572
                      0.00018828     0.000300889        -0.677068         0.72247      0.000642051     0.000309304       -0.0703027       -0.121447
253400                 -0.322359       0.0823342      0.000393755     -0.00029401         0.833667        0.440637      0.000337582     0.000220862
                      0.00053863     -0.00034426        -0.129233      -0.0624313      0.000418696    -0.000197683        -0.651261        0.745262
                        0.833947        0.440802      0.000415236    -0.000243824         0.113589        0.312665      0.000710937     0.000274915
                      0.00020959     0.000299885        -0.651237        0.745223      0.000656758     0.000286874       -0.0792356       -0.119633
253600                 -0.313374       0.0935176      0.000373248    -0.000332849         0.855755        0.400742      0.000354979     0.000207612
                     0.000519534    -0.000370515        -0.132781      -0.0624222      0.000409072    -0.000220515        -0.624619        0.767124
                        0.856056        0.400893      0.000400864    -0.000264447         0.128849        0.300521      0.000722791     0.000247229
                     0.000231945     0.000297308        -0.624589        0.767078        0.0006704      0.00026344       -0.0880868         -0.1173
253800                 -0.303783        0.103942      0.000353299    -0.000371649          0.87605        0.359605      0.000371602     0.000192959
                     0.000498585    -0.000395331        -0.136439      -0.0621956      0.000397931    -0.000242711        -0.597191        0.788059
                        0.876366        0.359736      0.000385642    -0.000283799         0.143165        0.287328      0.000732878     0.000218631
                     0.000255259     0.000292929        -0.597156        0.788005      0.000682896     0.000239049       -0.0968274       -0.114453
254000                 -0.293648        0.113564       0.00033366    -0.000409465         0.894468        0.317297      0.000387351     0.000176968
                     0.000475915    -0.000418542        -0.140194      -0.0617431      0.000385345    -0.000264146        -0.569008        0.808036
                        0.894793        0.317407      0.000369726    -0.000301896         0.156449        0.273157      0.000741136      0.00018924
                       0.0002794     0.000286511        -0.568968        0.807974      0.000694164      0.00021375        -0.105429       -0.111098
254200                 -0.283032        0.122344       0.00031393    -0.000445492         0.910929        0.273899      0.000402132     0.000159713
                     0.000451674    -0.000439998        -0.144034      -0.0610568      0.000371402    -0.000284711        -0.540102        0.827029
                        0.911257        0.273985      0.000353257    -0.000318779         0.168621        0.258085      0.000747508     0.000159182
                     0.000304187     0.000277816         -0.54006        0.826958      0.000704123       0.0001876        -0.113862        -0.10724
254400                 -0.272006        0.130247      0.000293662    -0.000479092         0.925354        0.229497      0.000415859     0.000141268
                     0.000426024    -0.000459564        -0.147944      -0.0601298      0.000356198    -0.000304307        -0.510508        0.845009
                        0.925678        0.229559      0.000336358    -0.000334503         0.179606        0.242199      0.000751943     0.000128586
                     0.000329386     0.000266613        -0.510464         0.84493      0.000712696     0.000160665        -0.122099        -0.10289
254600                  -0.26064        0.137245       0.00027244    -0.000509793         0.937669        0.184183      0.000428451     0.000121711
                     0.000399141    -0.000477126         -0.15191      -0.0589556      0.000339833     -0.00032285         -0.48026        0.861951
                        0.937982        0.184222      0.000319135     -0.00034914         0.189333        0.225589      0.000754394     9.75856e-05
                     0.000354704     0.000252694        -0.480215        0.861864      0.000719805     0.000133016        -0.130113      -0.0980564
254800                 -0.249009        0.143316      0.000249944    -0.000537252         0.947802        0.138059      0.000439834     0.000101122
                     0.000371209    -0.000492587        -0.155918      -0.0575288      0.000322417    -0.000340272        -0.449395         0.87783
                        0.948097        0.138076      0.000301671     -0.00036277         0.197743        0.208358      0.000754826     6.63203e-05
                     0.000379788     0.000235884        -0.449349        0.877735      0.000725375     0.000104731        -0.137875      -0.0927522
255000                  -0.23719        0.148442      0.000225977    -0.000561223         0.955685       0.0912294      0.000449937     7.95851e-05
                     0.000342417    -0.000505868        -0.159953      -0.0558446      0.000304058    -0.000356519        -0.417948        0.892622
                        0.955956       0.0912281      0.000284029    -0.000375483          0.20478        0.190609      0.000753208     3.49335e-05
                     0.000404229     0.000216065        -0.417904        0.892521      0.000729336     7.58952e-05        -0.145359      -0.0869904
255200                 -0.225261        0.152615      0.000200473    -0.000581528         0.961257       0.0438088      0.000458694     5.71863e-05
                     0.000312961    -0.000516913           -0.164       -0.053899      0.000284866    -0.000371549        -0.385958        0.906307
                        0.961499       0.0437934       0.00026625    -0.000387374           0.2104        0.172455      0.000749521     3.57327e-06
                     0.000427568     0.000193185        -0.385915          0.9062      0.000731619     4.66022e-05         -0.15254      -0.0807859
255400                 -0.213303        0.155831      0.000173493    -0.000598038         0.964463     -0.00408344      0.000466043     3.40154e-05
                     0.000283039    -0.000525681        -0.168043       -0.051689      0.000264948    -0.000385336        -0.353462        0.918862
                        0.964671     -0.00410777      0.000248352    -0.000398538         0.214567        0.154013      0.000743756    -2.76088e-05
                     0.000449315     0.000167284        -0.353422         0.91875      0.000732162     1.69522e-05        -0.159391      -0.0741552
255600                 -0.201395        0.158095      0.000145209    -0.000610663         0.965253      -0.0523217      0.000471926      1.0166e-05
                     0.000252848    -0.000532153        -0.172067      -0.0492122      0.000244407    -0.000397862        -0.320501        0.930268
                        0.965424      -0.0523488      0.000230328    -0.000409073         0.217257        0.135403      0.000735915    -5.84585e-05
                     0.000468963     0.000138499        -0.320464        0.930152      0.000730906    -1.29468e-05        -0.165889       -0.067116
255800                 -0.189617        0.159417      0.000115883    -0.000619351         0.963586       -0.100775      0.000476292     -1.4264e-05
                     0.000222585    -0.000536326        -0.176054      -0.0464674      0.000223343    -0.000409123        -0.287113        0.940506
                        0.963717       -0.100798      0.000212144     -0.00041907         0.218455        0.116748      0.000726012    -8.88194e-05
                     0.000486017     0.000107078         -0.28708        0.940388      0.000727798    -4.29797e-05         -0.17201      -0.0596876
256000                 -0.178049        0.159818       8.5851e-05    -0.000624092         0.959429       -0.149306      0.000479093    -3.91726e-05
                     0.000192445    -0.000538213        -0.179989      -0.0434541      0.000201847     -0.00041912         -0.25334        0.949561
                         0.95952       -0.149318      0.000193739    -0.000428613         0.218156       0.0981738      0.000714073    -0.000118535
                     0.000500023     7.33802e-05         -0.25331        0.949441      0.000722793    -7.30239e-05        -0.177731      -0.0518906
256200                 -0.166768        0.159322      5.54995e-05    -0.000624926         0.952758       -0.197774      0.000480285    -6.44527e-05
                     0.000162617    -0.000537845        -0.183856      -0.0401729      0.000180005    -0.000427864        -0.219222        0.957416
                        0.952808       -0.197767      0.000175018     -0.00043777          0.21637       0.0798079      0.000700137    -0.000147447
                     0.000510597     3.78641e-05        -0.219196        0.957296      0.000715853     -0.00010295         -0.18303      -0.0437469
256400                  -0.15585        0.157964      2.52453e-05     -0.00062194         0.943556       -0.246034      0.000479834    -8.99929e-05
                     0.000133286    -0.000535268        -0.187637      -0.0366252      0.000157894    -0.000435369        -0.184801        0.964058
                        0.943568       -0.246002      0.000155853    -0.000446585         0.213116       0.0617764      0.000684258    -0.000175403
                     0.000517453     1.07263e-06        -0.184779        0.963939      0.000706947    -0.000132621        -0.187889      -0.0352797
256600                 -0.145365        0.155783     -4.48392e-06    -0.000615281          0.93182       -0.293939      0.000477712    -0.000115677
                     0.000104631    -0.000530541        -0.191316      -0.0328134      0.000135585    -0.000441653         -0.15012        0.969474
                        0.931798       -0.293875      0.000136082    -0.000455065         0.208426       0.0442045      0.000666501    -0.000202251
                     0.000520424    -3.63952e-05          -0.1501        0.969357      0.000696055    -0.000161894        -0.192287      -0.0265134
256800                 -0.135383        0.152826     -3.32682e-05    -0.000605147         0.917555       -0.341338      0.000473897    -0.000141384
                     7.68254e-05     -0.00052374        -0.194876       -0.028741      0.000113141    -0.000446736        -0.115221        0.973652
                        0.917502       -0.341236      0.000115508    -0.000463162         0.202342       0.0272147      0.000646944    -0.000227843
                     0.000519477    -7.39166e-05        -0.115203         0.97354      0.000683167     -0.00019062        -0.196206      -0.0174737
257000                 -0.125966        0.149147     -6.07112e-05    -0.000591791         0.900776        -0.38808      0.000468379     -0.00016699
                     5.00334e-05     -0.00051495        -0.198301      -0.0244121      9.06178e-05    -0.000450638        -0.080148        0.976584
                        0.900699       -0.387934      9.39147e-05    -0.000470754         0.194921       0.0109256      0.000625681    -0.000252039
                     0.000514711    -0.000110881       -0.0801309        0.976476      0.000668283    -0.000218645        -0.199631     -0.00818706
257200                 -0.117173        0.144804     -8.64537e-05    -0.000575511         0.881512       -0.434013      0.000461157    -0.000192367
                     2.44123e-05    -0.000504269        -0.201575      -0.0198323      6.80671e-05    -0.000453377       -0.0449434        0.978261
                        0.881417        -0.43382      7.10793e-05    -0.000477612         0.186227     -0.00454924      0.000602815    -0.000274706
                     0.000506353    -0.000146722       -0.0449258        0.978158      0.000651417    -0.000245809        -0.202546      0.00131872
257400                 -0.109056        0.139863     -0.000110184    -0.000556641           0.8598       -0.478987      0.000452241    -0.000217387
                     1.11104e-07     -0.00049181        -0.204681      -0.0150079      4.55346e-05    -0.000454968      -0.00965122        0.978676
                        0.859696       -0.478744      4.68189e-05    -0.000483383         0.176338      -0.0191026      0.000578463    -0.000295718
                     0.000494734    -0.000180952      -0.00963178        0.978579      0.000632596    -0.000271948        -0.204938        0.011015
257600                 -0.101661        0.134391     -0.000131647    -0.000535544         0.835691       -0.522852      0.000441651    -0.000241918
                    -2.27305e-05    -0.000477693        -0.207602     -0.00994604      2.30633e-05    -0.000455423        0.0256846        0.977824
                        0.835585       -0.522558      2.10507e-05    -0.000487575         0.165341      -0.0326348       0.00055275    -0.000314962
                     0.000480271    -0.000213178        0.0257075        0.977734       0.00061186    -0.000296898        -0.206795       0.0208723
257800                -0.0950261        0.128464     -0.000150645      -0.0005126         0.809246       -0.565463      0.000429422     -0.00026583
                    -4.39821e-05    -0.000462051        -0.210324     -0.00465521      6.95437e-07    -0.000454745          0.06102        0.975702
                        0.809146       -0.565118     -6.12423e-06    -0.000489579         0.153332      -0.0450547      0.000525812    -0.000332335
                     0.000463432    -0.000243118         0.061048        0.975617      0.000589266    -0.000320491        -0.208106       0.0308603
258000                 -0.089183        0.122155     -0.000167039    -0.000488192         0.780537       -0.606677        0.0004156    -0.000288995
                    -6.35239e-05    -0.000445028        -0.212831      0.00085538     -2.15256e-05    -0.000452937        0.0963109        0.972307
                        0.780452       -0.606282     -3.43341e-05    -0.000488749         0.140415      -0.0562808      0.000497796    -0.000347744
                     0.000444712    -0.000270605        0.0963455        0.972227      0.000564887    -0.000342559        -0.208863       0.0409479
258200                -0.0841552        0.115545     -0.000180749    -0.000462702         0.749646       -0.646357      0.000400242    -0.000311289
                     -8.1247e-05    -0.000426776        -0.215107      0.00657545     -4.35519e-05    -0.000449991         0.131513        0.967638
                        0.749583       -0.645915     -6.28872e-05    -0.000484537         0.126703      -0.0662417      0.000468851    -0.000361111
                     0.000424603    -0.000295585         0.131556        0.967562      0.000538811    -0.000362936         -0.20906       0.0511035
258400                -0.0799586        0.108714     -0.000191749    -0.000436495         0.716667       -0.684372      0.000383419    -0.000332591
                    -9.70542e-05    -0.000407458        -0.217138       0.0124938     -6.53281e-05    -0.000445897         0.166583        0.961695
                        0.716634       -0.683888     -9.08128e-05    -0.000476679         0.112313      -0.0748776      0.000439136    -0.000372372
                     0.000403571    -0.000318108         0.166634        0.961622      0.000511145    -0.000381461         -0.20869       0.0612949
258600                 -0.076601        0.101742     -0.000200061    -0.000409919         0.681702       -0.720597      0.000365215    -0.000352789
                    -0.000110862    -0.000387245         -0.21891       0.0185982     -8.67873e-05    -0.000440641         0.201475        0.954482
                        0.681705       -0.720077     -0.000117021    -0.000465345        0.0973694      -0.0821402      0.000408813    -0.000381476
                      0.00038204    -0.000338317         0.201537        0.954409      0.000482013    -0.000397975        -0.207751       0.0714894
258800                -0.0740819       0.0947109     -0.000205745    -0.000383292         0.644862       -0.754917      0.000345722    -0.000371778
                    -0.000122599    -0.000366319        -0.220409       0.0248756     -0.000107848     -0.00043421         0.236147           0.946
                        0.644907       -0.754367      -0.00014055    -0.000451177        0.0819975      -0.0879933      0.000378045    -0.000388386
                     0.000360373    -0.000356438         0.236219        0.945925      0.000451558     -0.00041233        -0.206241       0.0816541
259000                -0.0723934       0.0876997     -0.000208899    -0.000356905         0.606268       -0.787223      0.000325044    -0.000389462
                    -0.000132211    -0.000344865        -0.221622        0.031312     -0.000128411    -0.000426595         0.270555        0.936254
                        0.606359       -0.786651     -0.000160796    -0.000435157        0.0663265      -0.0924135         0.000347    -0.000393078
                     0.000338862    -0.000372768         0.270636        0.936175      0.000419938    -0.000424385        -0.204161       0.0917557
259200                -0.0715194       0.0807865     -0.000209645    -0.000331016         0.566045       -0.817418      0.000303293    -0.000405759
                     -0.00013966     -0.00032308        -0.222538       0.0378924     -0.000148356    -0.000417803         0.304653         0.92525
                        0.566185       -0.816832     -0.000177624     -0.00041838        0.0504862      -0.0953895      0.000315841    -0.000395544
                      0.00031771    -0.000387664         0.304743        0.925165       0.00038733    -0.000434012        -0.201512        0.101761
259400                -0.0714369       0.0740467     -0.000208125     -0.00030585         0.524328       -0.845412       0.00028059    -0.000420595
                    -0.000144923    -0.000301162        -0.223143       0.0446011     -0.000167548    -0.000407861           0.3384        0.912995
                        0.524519       -0.844821     -0.000191321    -0.000401808        0.0346059      -0.0969229      0.000284734    -0.000395789
                     0.000297019    -0.000401531         0.338496        0.912901      0.000353927    -0.000441099          -0.1983        0.111636
259600                -0.0721154        0.067552     -0.000204497    -0.000281603         0.481256       -0.871128      0.000257059    -0.000433913
                    -0.000147999    -0.000279313        -0.223428       0.0514213     -0.000185834     -0.00039683         0.371751        0.899495
                        0.481496       -0.870541     -0.000202436    -0.000386129        0.0188131      -0.0970274       0.00025384    -0.000393831
                     0.000276764    -0.000414808         0.371852        0.899392      0.000319938    -0.000445549         -0.19453        0.121348
259800                -0.0735185       0.0613703     -0.000198925    -0.000258437          0.43697       -0.894498      0.000232829    -0.000445666