! TOUCHSTONE file generated by CST MICROWAVE STUDIO
! Date and time: Sun Sep 21 00:13:14 2025
! Project name: biblioteca3.cst
! Parameters = {t_sub=1000; t_air=1200; k=0; n=0; wavelength_nm=0; H=600; Lx=200; Ly=260; P=520}
! Header version: 2018
! Port assignment regex: !\s*Touchstone port\s*([0-9]+)\s*=\s*(CST MWS port|CST DS port)\s*([0-9]+|Zmin|Zmax)\s*\(\"(.*)\"\)(\s*mode\s*([0-9]+))?.*
! Touchstone port assignment:
! Touchstone port 1 = CST MWS port Zmin ("") mode 1
! Touchstone port 2 = CST MWS port Zmin ("") mode 2
! Touchstone port 3 = CST MWS port Zmax ("") mode 1
! Touchstone port 4 = CST MWS port Zmax ("") mode 2
! S-Parameters are not renormalized. Unphysical impedance of 50 will be written to the file.
# GHz S RI R 50
250000                 -0.308699      -0.0211331      8.60791e-05     -0.00060767        -0.893071       -0.326592      0.000266714    -4.68671e-05
                     4.71637e-05    -0.000558529       -0.0916834        0.160017       4.4068e-05    -0.000154823         0.403926       -0.895952
                       -0.893129       -0.326622      5.60359e-05    -0.000189991         0.249499        0.183018      0.000423569     0.000220519
                     0.000308547     5.32382e-05         0.404092       -0.895693      0.000420272     0.000278991        0.0593044       -0.174644
250200                 -0.313871     -0.00956054      6.08479e-05    -0.000601465         -0.90564       -0.285549      0.000270779    -5.21154e-05
                      1.8601e-05    -0.000556186       -0.0893773        0.158194      4.27946e-05    -0.000159263         0.375301       -0.908888
                       -0.905292       -0.285494      5.37357e-05    -0.000194153         0.262314        0.172359      0.000413573       0.0002165
                     0.000308968     4.57507e-05         0.375451       -0.908632      0.000418886     0.000265785         0.048386       -0.175192
250400                 -0.318343      0.00232843      3.53851e-05    -0.000593199         -0.91635       -0.244025      0.000274862    -5.76556e-05
                    -9.88192e-06    -0.000550697       -0.0872188         0.15632      4.13706e-05    -0.000163864         0.346189       -0.920918
                       -0.915668       -0.243949      5.12617e-05    -0.000198415         0.274562         0.16064      0.000402852     0.000211792
                     0.000309284     3.81365e-05         0.346328       -0.920664      0.000416453     0.000252078        0.0374679       -0.175126
250600                 -0.322099        0.014483      9.88187e-06    -0.000582756        -0.925193       -0.202105      0.000278954    -6.35036e-05
                    -3.77984e-05    -0.000542082       -0.0852104        0.154403      3.97821e-05    -0.000168632         0.316619        -0.93202
                       -0.924249       -0.202055      4.86019e-05    -0.000202778          0.28615        0.147897      0.000391419     0.000206314
                      0.00030949     3.03933e-05         0.316749       -0.931771      0.000412854      0.00023791        0.0265838       -0.174447
250800                 -0.325127       0.0268524     -1.54458e-05    -0.000570041        -0.932162       -0.159871      0.000283044    -6.96757e-05
                    -6.46752e-05    -0.000530459       -0.0833539        0.152449      3.80144e-05    -0.000173573         0.286619       -0.942175
                       -0.931028       -0.159882      4.57437e-05    -0.000207242         0.296984        0.134175      0.000379297     0.000199985
                     0.000309579     2.25193e-05         0.286743       -0.941933       0.00040796     0.000223341        0.0157677       -0.173154
251000                  -0.32742       0.0393856      -4.0358e-05    -0.000554982        -0.937255       -0.117404       0.00028712     -7.6189e-05
                    -9.00773e-05    -0.000516039       -0.0816511        0.150467      3.60512e-05    -0.000178692         0.256218       -0.951366
                       -0.935998       -0.117498      4.26735e-05    -0.000211808         0.306977        0.119526      0.000366525     0.000192728
                     0.000309546     1.45122e-05         0.256339       -0.951133      0.000401635     0.000208445       0.00505344        -0.17125
251200                 -0.328973       0.0520322     -6.45941e-05    -0.000537536        -0.940471      -0.0747848      0.000291167    -8.30611e-05
                    -0.000113629    -0.000499112       -0.0801033        0.148463      3.38744e-05    -0.000183996         0.225445       -0.959574
                       -0.939155      -0.0749723      3.93767e-05    -0.000216474         0.316046        0.104011      0.000353151     0.000184469
                     0.000309384     6.37018e-06         0.225565       -0.959352      0.000393737     0.000193322      -0.00552502       -0.168739
251400                 -0.329786       0.0647424     -8.78761e-05    -0.000517695        -0.941813      -0.0320919      0.000295168      -9.031e-05
                    -0.000135031    -0.000480024       -0.0787115        0.146446      3.14647e-05    -0.000189488         0.194333       -0.966783
                       -0.940496      -0.0323725      3.58376e-05    -0.000221241          0.32411       0.0876989      0.000339238     0.000175145
                     0.000309086    -1.90875e-06         0.194453       -0.966574      0.000384123     0.000178099       -0.0159339       -0.165629
251600                 -0.329861       0.0774671     -0.000109914    -0.000495486        -0.941285       0.0105971      0.000299107     -9.7954e-05
                    -0.000154066    -0.000459161       -0.0774764        0.144423      2.88003e-05    -0.000195175         0.162911       -0.972977
                       -0.940021       0.0102324      3.20396e-05    -0.000226106           0.3311        0.070666      0.000324859     0.000164706
                     0.000308646    -1.03265e-05         0.163034       -0.972782      0.000372646     0.000162931       -0.0261395       -0.161926
251800                 -0.329204       0.0901581     -0.000130413    -0.000470984        -0.938896        0.053206      0.000302962    -0.000106012
                    -0.000170604    -0.000436921       -0.0763984        0.142402      2.58578e-05     -0.00020106         0.131213       -0.978141
                       -0.937729       0.0527736      2.79647e-05    -0.000231067         0.336948       0.0529945      0.000310096     0.000153118
                     0.000308057    -1.88847e-05         0.131339       -0.977962      0.000359166     0.000148009       -0.0361087       -0.157641
252000                 -0.327823        0.102768     -0.000149078    -0.000444304        -0.934654       0.0956595       0.00030671    -0.000114501
                    -0.000184595    -0.000413693       -0.0754774        0.140391      2.26114e-05    -0.000207146        0.0992723        -0.98226
                       -0.933623       0.0951821      2.35935e-05    -0.000236121         0.341597       0.0347724      0.000295035     0.000140368
                     0.000307309    -2.75853e-05         0.099402         -0.9821      0.000343556     0.000133562       -0.0458085       -0.152785
252200                  -0.32573        0.115252     -0.000165626     -0.00041561        -0.928571        0.137884      0.000310325    -0.000123442
                     -0.00019606    -0.000389844       -0.0747131        0.138399      1.90325e-05    -0.000213438        0.0671218       -0.985322
                       -0.927706        0.137388      1.89056e-05    -0.000241263         0.344996       0.0160931      0.000279767     0.000126463
                     0.000306396    -3.64296e-05        0.0672556       -0.985182      0.000325705      0.00011986       -0.0552065       -0.147373
252400                 -0.322939        0.127564     -0.000179792    -0.000385109        -0.920661        0.179805      0.000313778    -0.000132851
                    -0.000205078    -0.000365707       -0.0741049        0.136432      1.50902e-05    -0.000219937        0.0347966       -0.987314
                       -0.919984        0.179323      1.38789e-05    -0.000246489         0.347103     -0.00294612      0.000264376     0.000111436
                     0.000305308    -4.54193e-05        0.0349344       -0.987195      0.000305531     0.000107216       -0.0642709       -0.141419
252600                 -0.319466        0.139662     -0.000191338    -0.000353052        -0.910939        0.221351      0.000317037    -0.000142746
                    -0.000211772    -0.000341567       -0.0736514          0.1345      1.07504e-05    -0.000226642       0.00233184       -0.988225
                       -0.910466        0.220916       8.4898e-06    -0.000251791         0.347882      -0.0222442      0.000248938     9.53433e-05
                     0.000304036    -5.45555e-05       0.00247356       -0.988129      0.000282995     9.59834e-05       -0.0729705       -0.134941
252800                 -0.315332        0.151503     -0.000200062    -0.000319725        -0.899423        0.262452      0.000320066    -0.000153144
                    -0.000216298    -0.000317664       -0.0733514         0.13261       5.9757e-06    -0.000233553       -0.0302364       -0.988046
                       -0.899159        0.262096      2.71322e-06     -0.00025716         0.347308      -0.0416974      0.000233517     7.82654e-05
                     0.000302571    -6.38394e-05       -0.0300912       -0.987974       0.00025811     8.65568e-05        -0.081275       -0.127957
253000                 -0.310557        0.163049     -0.000205805    -0.000285448         -0.88613        0.303034      0.000322827    -0.000164059
                    -0.000218829     -0.00029419       -0.0732028        0.130771      7.25381e-07    -0.000240666       -0.0628715       -0.986766
                       -0.886077        0.302793     -3.47768e-06    -0.000262587         0.345363      -0.0611999      0.000218155     6.03055e-05
                     0.000300903    -7.32719e-05       -0.0627234        -0.98672      0.000230954     7.93623e-05       -0.0891547       -0.120489
253200                 -0.305166         0.17426     -0.000208453    -0.000250562        -0.871084        0.343029      0.000325274    -0.000175504
                    -0.000219545    -0.000271293       -0.0732035        0.128991     -5.04516e-06    -0.000247974       -0.0955361       -0.984379
                       -0.871232        0.342935     -1.01114e-05    -0.000268059          0.34204      -0.0806445      0.000202873     4.15865e-05
                     0.000299022    -8.28537e-05        -0.095386       -0.984359      0.000201689     7.48476e-05       -0.0965812       -0.112558
253400                 -0.299184        0.185101     -0.000207948    -0.000215422        -0.854305        0.382367      0.000327363     -0.00018749
                    -0.000218626    -0.000249081       -0.0733507        0.127277     -1.13845e-05    -0.000255468        -0.128192       -0.980878
                       -0.854642        0.382449     -1.72183e-05    -0.000273561         0.337338      -0.0999235      0.000187663     2.22477e-05
                     0.000296915    -9.25852e-05        -0.128041       -0.980885       0.00017057     7.34657e-05        -0.103527       -0.104189
253600                  -0.29264        0.195535      -0.00020428    -0.000180387        -0.835819        0.420979      0.000329041    -0.000200025
                    -0.000216245    -0.000227625       -0.0736414        0.125638     -1.83456e-05    -0.000263135        -0.160802       -0.976258
                       -0.836326        0.421265     -2.48305e-05    -0.000279075         0.331265       -0.118929      0.000172491     2.44103e-06
                     0.000294572    -0.000102466        -0.160651       -0.976292      0.000137955     7.56536e-05        -0.109966      -0.0954074
253800                 -0.285564        0.205532     -0.000197496     -0.00014581        -0.815652        0.458794      0.000330252    -0.000213112
                    -0.000212562    -0.000206968       -0.0740722        0.124081     -2.59858e-05    -0.000270955        -0.193326       -0.970515
                       -0.816305        0.459309     -3.29819e-05     -0.00028458          0.32384       -0.137555      0.000157289    -1.76719e-05
                      0.00029198    -0.000112497        -0.193176       -0.970576      0.000104308     8.18068e-05        -0.115872      -0.0862407
254000                 -0.277987        0.215059      -0.00018769    -0.000112029        -0.793834        0.495746      0.000330938    -0.000226751
                    -0.000207724     -0.00018713       -0.0746391        0.122615      -3.4367e-05    -0.000278905        -0.225724       -0.963645
                       -0.794603        0.496508     -4.17082e-05    -0.000290052         0.315088       -0.155694      0.000141962    -3.79231e-05
                     0.000289126    -0.000122677        -0.225577       -0.963734      7.01988e-05     9.22501e-05        -0.121222      -0.0767176
254200                 -0.269943        0.224089     -0.000175001      -7.936e-05        -0.770394        0.531765      0.000331036    -0.000240935
                    -0.000201861    -0.000168109       -0.0753378        0.121247      -4.3556e-05    -0.000286951        -0.257957       -0.955649
                       -0.771248        0.532789     -5.10469e-05     -0.00029546         0.305043       -0.173245      0.000126386    -5.81399e-05
                     0.000285996    -0.000133004        -0.257814       -0.955765      3.62891e-05     0.000107207        -0.125994      -0.0668685
254400                 -0.261468        0.232594     -0.000159608    -4.80877e-05        -0.745368        0.566784      0.000330477    -0.000255652
                    -0.000195087    -0.000149892       -0.0761636        0.119985     -5.36241e-05    -0.000295056        -0.289985       -0.946525
                       -0.746271         0.56808     -6.10368e-05    -0.000300771         0.293748       -0.190105      0.000110408    -7.81456e-05
                     0.000282578    -0.000143478        -0.289847        -0.94667       3.3108e-06     0.000126775        -0.130167      -0.0567253
254600                 -0.252598        0.240552     -0.000141719    -1.84627e-05        -0.718789        0.600734      0.000329193    -0.000270883
                    -0.000187497    -0.000132453       -0.0771115        0.118837     -6.46468e-05    -0.000303167        -0.321767       -0.936277
                       -0.719706        0.602306     -7.17183e-05    -0.000305945         0.281253       -0.206178      9.38538e-05     -9.7759e-05
                     0.000278855    -0.000154096        -0.321635       -0.936448     -2.79646e-05     0.000150896        -0.133722      -0.0463211
254800                 -0.243371         0.24794      -0.00012157      9.3031e-06        -0.690697        0.633549      0.000327111    -0.000286601
                    -0.000179171    -0.000115761       -0.0781759        0.117808     -7.67039e-05    -0.000311224        -0.353262       -0.924906
                        -0.69159        0.635394     -8.31328e-05    -0.000310937         0.267616       -0.221369      7.65261e-05    -0.000116791
                     0.000274811    -0.000164855        -0.353137       -0.925104     -5.67649e-05     0.000179355         -0.13664      -0.0356903
255000                 -0.233827        0.254739     -9.94113e-05     3.50373e-05        -0.661132        0.665162      0.000324157    -0.000302769
                    -0.000170176    -9.97785e-05       -0.0793509        0.116907     -8.98778e-05    -0.000319149        -0.384429       -0.912417
                       -0.661964        0.667274     -9.53224e-05    -0.000315692         0.252902       -0.235588      5.82111e-05    -0.000135042
                     0.000270432    -0.000175753        -0.384313       -0.912641     -8.23595e-05      0.00021177        -0.138908      -0.0248687
255200                 -0.224007        0.260933     -7.55017e-05     5.86071e-05        -0.630138        0.695506      0.000320256    -0.000319339
                    -0.000160561    -8.44677e-05       -0.0806301        0.116141     -0.000104253    -0.000326851        -0.415226       -0.898818
                       -0.630873        0.697872     -0.000108329     -0.00032015         0.237184       -0.248752      3.86809e-05    -0.000152295
                     0.000265698    -0.000186783        -0.415121       -0.899067     -0.000104102     0.000247607        -0.140509      -0.0138932
255400                 -0.213953        0.266507     -5.01031e-05     7.99181e-05        -0.597762        0.724516      0.000315335    -0.000336256
                    -0.000150365    -6.97898e-05       -0.0820068        0.115516     -0.000119914    -0.000334218        -0.445612       -0.884115
                       -0.598366        0.727117     -0.000122194     -0.00032424         0.220541       -0.260781      1.76982e-05    -0.000168306
                     0.000260594    -0.000197943        -0.445518       -0.884388     -0.000121466     0.000286211        -0.141434     -0.00280146
255600                 -0.203706        0.271451     -2.34737e-05     9.89116e-05        -0.564054        0.752125      0.000309322    -0.000353451
                    -0.000139613    -5.57076e-05       -0.0834739        0.115038     -0.000136943    -0.000341117        -0.475545       -0.868318
                       -0.564494         0.75494     -0.000136957    -0.000327882         0.203059       -0.271601     -4.97815e-06    -0.000182799
                     0.000255099    -0.000209225        -0.475465       -0.868614     -0.000134072     0.000326836        -0.141672       0.0083675
255800                 -0.193312        0.275756      4.13705e-06     0.000115561        -0.529066        0.778271       0.00030215    -0.000370844
                     -0.00012832    -4.21865e-05       -0.0850238        0.114714     -0.000155417    -0.000347394        -0.504985       -0.851438
                       -0.529314        0.781272     -0.000152655    -0.000330984         0.184829       -0.281147     -2.95864e-05    -0.000195451
                     0.000249194    -0.000220623        -0.504918       -0.851755     -0.000141706     0.000368686        -0.141215       0.0195741
256000                 -0.182812        0.279418       3.2492e-05     0.000129867        -0.492857         0.80289      0.000293758    -0.000388341
                    -0.000116491    -2.91954e-05       -0.0866487        0.114548       -0.0001754    -0.000352864        -0.533889       -0.833488
                       -0.492887        0.806045     -0.000169319    -0.000333443         0.165949       -0.289358     -5.63525e-05    -0.000205881
                     0.000242859    -0.000232127        -0.533837       -0.833825     -0.000144312     0.000410963        -0.140058       0.0307778
256200                 -0.172252        0.282433      6.13691e-05     0.000141857        -0.455485         0.82592      0.000284094    -0.000405841
                    -0.000104123    -1.67078e-05       -0.0883404        0.114548     -0.000196945    -0.000357316        -0.562216       -0.814482
                       -0.455278        0.829196     -0.000186977    -0.000335143         0.146522       -0.296182     -8.54774e-05    -0.000213634
                     0.000236073     -0.00024373         -0.56218       -0.814838     -0.000141991     0.000452903        -0.138199       0.0419376
256400                 -0.161676        0.284804      9.05635e-05     0.000151577        -0.417016          0.8473      0.000273115    -0.000423228
                    -9.12029e-05    -4.70235e-06       -0.0900901        0.114717     -0.000220078    -0.000360511        -0.589925       -0.794436
                       -0.416554         0.85066     -0.000205645    -0.000335953         0.126654       -0.301574     -0.000117118    -0.000218167
                     0.000228814    -0.000255419        -0.589907       -0.794809     -0.000134973     0.000493808        -0.135635        0.053012
256600                 -0.151129        0.286533      0.000119888     0.000159087        -0.377515        0.866973      0.000260792    -0.000440377
                    -7.77123e-05     6.83613e-06       -0.0918889        0.115061     -0.000244798    -0.000362178        -0.616976       -0.773368
                       -0.376789        0.870377     -0.000225329    -0.000335729         0.106455       -0.305499     -0.000151363    -0.000218837
                     0.000221059    -0.000267181        -0.616975       -0.773756     -0.000123591      0.00053307        -0.132369       0.0639589
256800                 -0.140654        0.287628      0.000149175     0.000164462        -0.337055        0.884882      0.000247112    -0.000457157
                    -6.36249e-05     1.79163e-05       -0.0937275        0.115583     -0.000271063     -0.00036202        -0.643329       -0.751298
                        -0.33606        0.888291     -0.000246019    -0.000334311        0.0860408       -0.307929     -0.000188199    -0.000214884
                     0.000212786    -0.000279004        -0.643346       -0.751699     -0.000108255     0.000570184        -0.128405       0.0747364
257000                 -0.130295        0.288099      0.000178272     0.000167784         -0.29571        0.900973      0.000232078    -0.000473428
                     -4.8909e-05     2.85392e-05       -0.0955964        0.116288      -0.00029878    -0.000359713        -0.668942       -0.728246
                       -0.294446        0.904346     -0.000267689    -0.000331526        0.0655276       -0.308847     -0.000227461    -0.000205431
                     0.000203969    -0.000290869        -0.668978       -0.728659      -8.9416e-05     0.000604751        -0.123749        0.085302
257200                 -0.120095        0.287959      0.000207048     0.000169142         -0.25356        0.915195      0.000215713    -0.000489049
                    -3.35276e-05      3.8698e-05       -0.0974855        0.117179     -0.000327796    -0.000354921        -0.693778       -0.704235
                       -0.252034        0.918492     -0.000290289    -0.000327188        0.0450342       -0.308242     -0.000268779    -0.000189486
                     0.000194584     -0.00030276        -0.693832       -0.704659     -6.75462e-05     0.000636477         -0.11841       0.0956136
257400                 -0.110095        0.287226      0.000235383     0.000168626        -0.210687          0.9275      0.000198059    -0.000503879
                    -1.74391e-05     4.83767e-05       -0.0993846        0.118258     -0.000357886      -0.0003473        -0.717796        -0.67929
                        -0.20891        0.930682      -0.00031374    -0.000321097        0.0246807       -0.306116     -0.000311505    -0.000165972
                     0.000184606    -0.000314654         -0.71787       -0.679722     -4.31128e-05     0.000665162          -0.1124        0.105629
257600                 -0.100336        0.285919      0.000263176      0.00016633        -0.167178        0.937842       0.00017918    -0.000517779
                    -5.98264e-07     5.75495e-05        -0.101283        0.119529     -0.000388743    -0.000336518         -0.74096       -0.653438
                       -0.165167        0.940873     -0.000337933    -0.000313048       0.00458761        -0.30248      -0.00035463    -0.000133781
                     0.000174009     -0.00032653        -0.741054       -0.653876     -1.65636e-05     0.000690689        -0.105734        0.115307
257800                -0.0908572         0.28406      0.000290337     0.000162343        -0.123123        0.946181      0.000159159    -0.000530617
                     1.70431e-05     6.61798e-05        -0.103171        0.120994     -0.000419977    -0.000322271        -0.763232       -0.626706
                         -0.1209        0.949028      -0.00036272    -0.000302829       -0.0151252       -0.297354     -0.000396714    -9.18724e-05
                     0.000162768    -0.000338361        -0.763345       -0.627148      1.16858e-05     0.000713009       -0.0984271        0.124606
258000                -0.0816953        0.281676      0.000316789     0.000156754       -0.0786144        0.952479        0.0001381    -0.000542275
                     3.55349e-05     7.42193e-05        -0.105037        0.122653     -0.000451108    -0.000304309        -0.784576       -0.599123
                       -0.076206        0.955113     -0.000387912    -0.000290231        -0.034339        -0.29077     -0.000435818    -3.94248e-05
                     0.000150855    -0.000350118        -0.784708       -0.599568      4.12584e-05      0.00073213       -0.0904997        0.133485
258200                -0.0728856        0.278795      0.000342464     0.000149651       -0.0337501        0.956705      0.000116123    -0.000552647
                      5.4928e-05     8.16066e-05        -0.106869        0.124508     -0.000481579    -0.000282462        -0.804955       -0.570721
                      -0.0311869        0.959099     -0.000413275    -0.000275057       -0.0529372       -0.282766     -0.000469508      2.3959e-05
                     0.000138245     -0.00036177        -0.805106       -0.571167      7.18198e-05     0.000748099       -0.0819736        0.141905
258400                -0.0644608        0.275447      0.000367304     0.000141112        0.0113704        0.958831      9.33677e-05    -0.000561646
                     7.52723e-05     8.82664e-05        -0.108657        0.126558     -0.000510765    -0.000256664        -0.824337       -0.541532
                       0.0140546        0.960965     -0.000438523    -0.000257125       -0.0708066       -0.273396     -0.000494928     9.80076e-05
                     0.000124913     -0.00037328        -0.824506       -0.541977      0.000103078     0.000760997       -0.0728731        0.149828
258600                -0.0564513        0.271667      0.000391257     0.000131215        0.0566442        0.958835      6.99816e-05    -0.000569206
                      9.6615e-05     9.41081e-05        -0.110389        0.128805     -0.000537999    -0.000226978        -0.842687       -0.511591
                        0.059413        0.960693     -0.000463322    -0.000236287       -0.0878377       -0.262718     -0.000509016     0.000181538
                     0.000110832    -0.000384611        -0.842874       -0.512033      0.000134784     0.000770922       -0.0632254        0.157215
258800                -0.0488846        0.267489      0.000414279     0.000120032         0.101966        0.956699      4.61234e-05    -0.000575283
                     0.000118999     9.90248e-05        -0.112054        0.131246     -0.000562608     -0.00019361        -0.859973       -0.480934
                        0.104782        0.958272      -0.00048729    -0.000212437        -0.103926       -0.250802      -0.00050885     0.000272285
                     9.59789e-05    -0.000395718        -0.860178       -0.481371      0.000166724     0.000777987         -0.05306         0.16403
259000                -0.0417853        0.262953      0.000436329     0.000107627         0.147229        0.952412      2.19558e-05     -0.00057986
                      0.00014246     0.000102892        -0.113639         0.13388     -0.000583947    -0.000156918        -0.876164       -0.449597
                        0.150052        0.953697     -0.000510004    -0.000185527        -0.118973       -0.237728     -0.000492106     0.000366894
                     8.03296e-05    -0.000406556        -0.876386       -0.450028      0.000198722     0.000782312       -0.0424088         0.17024
259200                -0.0351749        0.258098      0.000457371     9.40629e-05         0.192324        0.945971     -2.35841e-06    -0.000582945
                     0.000167022     0.000105567        -0.115134        0.136706     -0.000601445    -0.000117405        -0.891231       -0.417619
                        0.195115         0.94697     -0.000531003    -0.000155578        -0.132887       -0.223582     -0.000457545      0.00046115
                     6.38628e-05    -0.000417073        -0.891469       -0.418042      0.000230633     0.000784016        -0.031306         0.17581
259400                -0.0290716        0.252965      0.000477371     7.93934e-05          0.23714        0.937375     -2.66604e-05     -0.00058457
                     0.000192697      0.00010689        -0.116526         0.13972      -0.00061464    -7.56963e-05        -0.905145       -0.385041
                        0.239861        0.938098     -0.000549811    -0.000122695        -0.145583        -0.20846     -0.000405363     0.000550442
                      4.6559e-05    -0.000427214        -0.905399       -0.385455      0.000262335     0.000783219       -0.0197883         0.18071
259600                -0.0234902        0.247595      0.000496297      6.3669e-05         0.281566        0.926633        -5.08e-05    -0.000584794
                     0.000219477     0.000106679        -0.117804        0.142919     -0.000623214    -3.25099e-05        -0.917881       -0.351904
                        0.284182        0.927095     -0.000565945    -8.70718e-05        -0.156985       -0.192465     -0.000337296     0.000630391
                     2.84012e-05    -0.000436917        -0.918149       -0.352306      0.000293732     0.000780036      -0.00789444        0.184911
259800                -0.0184418        0.242033      0.000514118     4.69347e-05          0.32549         0.91376     -7.46391e-05    -0.000583696