! TOUCHSTONE file generated by CST MICROWAVE STUDIO
! Date and time: Sun Sep 21 00:14:52 2025
! Project name: biblioteca3.cst
! Parameters = {t_sub=1500; t_air=1200; k=0; n=0; wavelength_nm=0; H=600; Lx=200; Ly=260; P=520}
! Header version: 2018
! Port assignment regex: !\s*Touchstone port\s*([0-9]+)\s*=\s*(CST MWS port|CST DS port)\s*([0-9]+|Zmin|Zmax)\s*\(\"(.*)\"\)(\s*mode\s*([0-9]+))?.*
! Touchstone port assignment:
! Touchstone port 1 = CST MWS port Zmin ("") mode 1
! Touchstone port 2 = CST MWS port Zmin ("") mode 2
! Touchstone port 3 = CST MWS port Zmax ("") mode 1
! Touchstone port 4 = CST MWS port Zmax ("") mode 2
! S-Parameters are not renormalized. Unphysical impedance of 50 will be written to the file.
# GHz S RI R 50
250000                 -0.348883       -0.159343      1.33339e-05     0.000794684        -0.898352       -0.214214     -4.37795e-05    -0.000395028
                     3.73129e-05     0.000849612       -0.0953878      -0.0484782      0.000180719    -2.31093e-05         0.246409        -0.96323
                       -0.898717       -0.214309       0.00019356    -0.000103418         0.383265        0.015246     -0.000705174    -0.000340614
                    -5.61436e-05    -0.000387928         0.246854       -0.963523     -0.000701754    -0.000319924        -0.106951     -0.00330485
250200                 -0.354568       -0.144896      5.67895e-05     0.000790395         -0.90778       -0.169739       -6.458e-05    -0.000399013
                     9.75823e-05     0.000855883       -0.0963322      -0.0503893      0.000182406    -2.49734e-05          0.21031       -0.971663
                       -0.908206       -0.169368      0.000199609    -0.000112635         0.382781     -0.00582237     -0.000709537    -0.000325104
                    -7.34203e-05    -0.000397109         0.210669       -0.971946     -0.000708245    -0.000317378        -0.108578      0.00577234
250400                 -0.359375       -0.130077      0.000100779     0.000783815        -0.915194       -0.124823      -8.6196e-05    -0.000401819
                     0.000159215     0.000856626       -0.0974922      -0.0522562      0.000184087    -2.69034e-05         0.173873       -0.978712
                       -0.915616       -0.124067      0.000206206    -0.000123154         0.380836      -0.0269807     -0.000713041      -0.0003102
                    -9.22833e-05      -0.0004056         0.174156       -0.978981     -0.000714616    -0.000314851        -0.109611       0.0149985
250600                 -0.363265       -0.114953      0.000145189      0.00077482         -0.92057      -0.0795339     -0.000108558    -0.000403349
                     0.000221556     0.000851628       -0.0988655      -0.0540655      0.000185758    -2.89006e-05         0.137153       -0.984364
                       -0.920936      -0.0784701      0.000213461    -0.000135261         0.377403      -0.0481109     -0.000715826    -0.000295958
                    -0.000112777    -0.000413195         0.137369       -0.984617     -0.000720839    -0.000312351        -0.110035       0.0243342
250800                  -0.36621      -0.0995957      0.000189889     0.000763287        -0.923881      -0.0339407     -0.000131586     -0.00040351
                     0.000283919     0.000840776        -0.100449      -0.0558036      0.000187413    -3.09654e-05         0.100205       -0.988607
                       -0.924155       -0.032641      0.000221519    -0.000149334         0.372464        -0.06909     -0.000718025    -0.000282412
                    -0.000134921    -0.000419667         0.100362       -0.988842     -0.000726884    -0.000309885        -0.109841       0.0337389
251000                 -0.368186      -0.0840791      0.000234732     0.000749095        -0.925099       0.0118835     -0.000155189    -0.000402218
                     0.000345609     0.000824064        -0.102238      -0.0574572      0.000189044    -3.30979e-05        0.0630831       -0.991433
                       -0.925258       0.0133529      0.000230582    -0.000165882         0.366017      -0.0897917      -0.00071977    -0.000269572
                    -0.000158706    -0.000424768        0.0631907        -0.99165     -0.000732712    -0.000307457        -0.109022       0.0431712
251200                 -0.369177      -0.0684815      0.000279553     0.000732126        -0.924198       0.0578622     -0.000179266    -0.000399393
                     0.000405937     0.000801588        -0.104229      -0.0590133      0.000190641    -3.52971e-05        0.0258437       -0.992835
                       -0.924229       0.0594414      0.000240931    -0.000185608         0.358066       -0.110088     -0.000721179    -0.000257432
                    -0.000184086     -0.00042823        0.0259086       -0.993033     -0.000738282    -0.000305068        -0.107573       0.0525892
251400                 -0.369172      -0.0528822      0.000324167     0.000712271        -0.921151        0.103915     -0.000203707    -0.000394965
                     0.000464244     0.000773547        -0.106416      -0.0604589      0.000192196    -3.75609e-05        -0.011458       -0.992808
                        -0.92105        0.105551      0.000252983    -0.000209517         0.348631       -0.129848     -0.000722364    -0.000245971
                    -0.000210971    -0.000429775       -0.0114291       -0.992988     -0.000743544    -0.000302718        -0.105492       0.0619503
251600                 -0.368171      -0.0373621      0.000368371     0.000689427        -0.915933        0.149957     -0.000228396    -0.000388875
                     0.000519915      0.00074023        -0.108792      -0.0617814      0.000193694    -3.98855e-05       -0.0487663       -0.991349
                       -0.915703        0.151604       0.00026737    -0.000239086         0.337743       -0.148942     -0.000723423    -0.000235154
                    -0.000239224    -0.000429118       -0.0487676       -0.991513     -0.000748442    -0.000300398        -0.102781       0.0712122
251800                  -0.36618      -0.0220021       0.00041194     0.000663504        -0.908521          0.1959     -0.000253207    -0.000381071
                     0.000572397     0.000702003        -0.111352      -0.0629686      0.000195121    -4.22649e-05       -0.0860257       -0.988458
                       -0.908171        0.197518      0.000285112    -0.000276594         0.325447       -0.167244     -0.000724441    -0.000224939
                    -0.000268653    -0.000425979       -0.0860518       -0.988608     -0.000752912    -0.000298092       -0.0994463       0.0803324
252000                 -0.363211     -0.00688287      0.000454628     0.000634426        -0.898894         0.24165     -0.000278011    -0.000371517
                     0.000621207     0.000659296        -0.114086      -0.0640084      0.000196457      -4.469e-05        -0.123181       -0.984138
                       -0.898436        0.243206      0.000307961    -0.000325738           0.3118       -0.184626     -0.000725494    -0.000215277
                    -0.000299007    -0.000420092        -0.123227       -0.984274     -0.000756883    -0.000295774       -0.0954941       0.0892689
252200                 -0.359287      0.00791641       0.00049617     0.000602133        -0.887033        0.287108     -0.000302676    -0.000360184
                      0.00066594     0.000612587        -0.116988      -0.0648893      0.000197681    -4.71473e-05        -0.160176        -0.97839
                       -0.886483        0.288577      0.000339191     -0.00039295          0.29687       -0.200968     -0.000726644    -0.000206115
                    -0.000329983    -0.000411221        -0.160239       -0.978515     -0.000760277    -0.000293402       -0.0909358       0.0979802
252400                 -0.354436       0.0223186      0.000536278     0.000566589        -0.872924        0.332174     -0.000327063    -0.000347057
                      0.00070627     0.000562385        -0.120047      -0.0656001      0.000198764    -4.96174e-05        -0.196956       -0.971222
                         -0.8723        0.333534      0.000385663    -0.000490471         0.280738       -0.216155     -0.000727946    -0.000197398
                     -0.00036122    -0.000399172        -0.197032       -0.971339     -0.000763012    -0.000290916       -0.0857849        0.106426
252600                 -0.348694       0.0362493      0.000574647      0.00052778        -0.856557        0.376738     -0.000351037    -0.000332132
                     0.000741954     0.000509214        -0.123255      -0.0661302      0.000199673    -5.20722e-05        -0.233466       -0.962641
                       -0.855877        0.377975      0.000464327    -0.000644706         0.263499       -0.230077     -0.000729443    -0.000189067
                    -0.000392314    -0.000383805        -0.233554       -0.962751     -0.000765003    -0.000288231        -0.080058        0.114566
252800                 -0.342102       0.0496379      0.000610955     0.000485723        -0.837926         0.42069     -0.000374458    -0.000315417
                     0.000772822       0.0004536        -0.126601      -0.0664694      0.000200365    -5.44714e-05        -0.269651       -0.952657
                       -0.837209        0.421794      0.000629494     -0.00092402         0.245255       -0.242633     -0.000731169    -0.000181067
                    -0.000422823    -0.000365049        -0.269749       -0.952763     -0.000766173    -0.000285238       -0.0737742        0.122362
253000                  -0.33471       0.0624177      0.000644861     0.000440466        -0.817031        0.463913     -0.000397192     -0.00029693
                     0.000798775     0.000396058        -0.130073      -0.0666081      0.000200789    -5.67565e-05        -0.305458       -0.941282
                       -0.816297         0.46488       0.00116233     -0.00155802         0.226121       -0.253731     -0.000733153     -0.00017334
                    -0.000452286    -0.000342908        -0.305564       -0.941386     -0.000766455    -0.000281794       -0.0669555        0.129777
253200                 -0.326573        0.074527      0.000676015     0.000392096        -0.793878        0.506289     -0.000419102    -0.000276701
                     0.000819777     0.000337083        -0.133662      -0.0665372      0.000200881    -5.88423e-05        -0.340833        -0.92853
                       -0.793144        0.507116       0.00571122     -0.00153203          0.20622       -0.263291     -0.000735415    -0.000165831
                    -0.000480235     -0.00031747        -0.340946       -0.928634     -0.000765806    -0.000277723        -0.059626        0.136776
253400                  -0.31775       0.0859093      0.000704057     0.000340739         -0.76848        0.547692     -0.000440058    -0.000254768
                     0.000835845     0.000277144        -0.137353      -0.0662484      0.000200561    -6.06022e-05        -0.375723       -0.914417
                       -0.767763        0.548383      0.000646866      0.00263893         0.185685       -0.271241     -0.000737969    -0.000158487
                    -0.000506222    -0.000288907        -0.375843       -0.914523     -0.000764222     -0.00027282       -0.0518125        0.143325
253600                 -0.308306       0.0965138      0.000728623     0.000286565        -0.740859        0.587998     -0.000459932     -0.00023118
                     0.000847041     0.000216676        -0.141136      -0.0657337      0.000199738    -6.18454e-05        -0.410076       -0.898961
                       -0.740173        0.588557      0.000157488      0.00127078         0.164654       -0.277525     -0.000740826    -0.000151255
                    -0.000529826    -0.000257467        -0.410202        -0.89907     -0.000761752    -0.000266857       -0.0435437        0.149392
253800                  -0.29831        0.106296      0.000749353     0.000229793        -0.711043        0.627076     -0.000478598    -0.000205992
                      0.00085346     0.000156082        -0.144996      -0.0649862      0.000198302    -6.22773e-05        -0.443839       -0.882182
                       -0.710402        0.627512      0.000137868     0.000820953         0.143272       -0.282096     -0.000743991    -0.000144086
                    -0.000550682    -0.000223469        -0.443972       -0.882295     -0.000758509      -0.0002596       -0.0348505        0.154947
254000                 -0.287834        0.115218      0.000765893      0.00017069         -0.67907        0.664796     -0.000495935    -0.000179269
                     0.000855228     9.57277e-05        -0.148921      -0.0639993      0.000196149    -6.14319e-05        -0.476962       -0.864102
                       -0.678483        0.665118      0.000153832      0.00060307          0.12169       -0.284923     -0.000747464    -0.000136932
                    -0.000568487     -0.00018729        -0.477102       -0.864219     -0.000754683    -0.000250832       -0.0257657        0.159963
254200                 -0.276952        0.123248      0.000777906     0.000109575        -0.644986        0.701024     -0.000511828     -0.00015108
                     0.000852487     3.59438e-05        -0.152895      -0.0627676      0.000193229    -5.85525e-05        -0.509394       -0.844743
                       -0.644463        0.701244       0.00017292     0.000474113          0.10006       -0.285989     -0.000751243    -0.000129745
                    -0.000583012    -0.000149344        -0.509543       -0.844865     -0.000750537    -0.000240379       -0.0163238        0.164413
254400                 -0.265744        0.130362      0.000785076      4.6818e-05        -0.608849         0.73563     -0.000526163    -0.000121504
                     0.000845395    -2.29711e-05        -0.156906       -0.061286        0.0001897    -5.23833e-05        -0.541087       -0.824132
                       -0.608395        0.735758      0.000190917     0.000388053        0.0785383        -0.28529     -0.000755324    -0.000122483
                    -0.000594108    -0.000110066        -0.541245       -0.824259     -0.000746395    -0.000228145      -0.00656088        0.168275
254600                 -0.254287        0.136542      0.000787123     -1.7161e-05        -0.570724        0.768479     -0.000538831    -9.06236e-05
                     0.000834114    -8.07492e-05        -0.160938      -0.0595504      0.000186387    -4.08429e-05        -0.571992       -0.802295
                       -0.570344        0.768528      0.000207472     0.000325729          0.05728       -0.282839     -0.000759696    -0.000115101
                    -0.000601701    -6.98951e-05        -0.572159       -0.802428     -0.000742614    -0.000214133       0.00348561        0.171528
254800                 -0.242661        0.141777      0.000783805    -8.18942e-05        -0.530689        0.799441     -0.000549726    -5.85284e-05
                     0.000818811    -0.000137149        -0.164976      -0.0575577       0.00018607    -2.07417e-05        -0.602062       -0.779262
                       -0.530385        0.799425      0.000222854     0.000277753        0.0364403       -0.278661      -0.00076435    -0.000107558
                    -0.000605794    -2.92582e-05        -0.602238       -0.779399     -0.000739544    -0.000198453        0.0137769        0.174153
255000                 -0.230946        0.146065      0.000774928     -0.00014687        -0.488832        0.828388     -0.000558744    -2.53143e-05
                     0.000799653    -0.000191953        -0.169005      -0.0553052      0.000196679     1.10382e-05        -0.631249       -0.755064
                       -0.488604        0.828317      0.000237377     0.000238971         0.016172       -0.272797     -0.000769271    -9.98144e-05
                    -0.000606454     1.14461e-05        -0.631437       -0.755205     -0.000737488    -0.000181323        0.0242732        0.176134
255200                 -0.219222        0.149408      0.000760356     -0.00021154         -0.44525        0.855193     -0.000565786     8.91644e-06
                     0.000776803    -0.000244963        -0.173009      -0.0527914      0.000235004     4.89795e-05         -0.65951       -0.729733
                       -0.445098         0.85508      0.000251297     0.000206303      -0.00337623       -0.265304     -0.000774443    -9.18317e-05
                    -0.000603801     5.18564e-05        -0.659709       -0.729876     -0.000736666    -0.000163036        0.0349338        0.177459
255400                 -0.207568        0.151818      0.000740018    -0.000275325        -0.400053        0.879736     -0.000570753     4.40545e-05
                     0.000750418    -0.000295996        -0.176972      -0.0500156      0.000310516     6.05199e-05          -0.6868       -0.703302
                       -0.399973        0.879592      0.000264807     0.000177777       -0.0220606       -0.256249     -0.000779848    -8.35724e-05
                    -0.000597997     9.16555e-05         -0.68701       -0.703447     -0.000737196    -0.000143929        0.0457172        0.178117
255600                 -0.196061         0.15331      0.000713914    -0.000337623         -0.35336        0.901902     -0.000573551     7.99829e-05
                     0.000720653    -0.000344881         -0.18088      -0.0469779      0.000381896     1.55506e-05        -0.713075       -0.675808
                       -0.353348        0.901737      0.000278041     0.000152055       -0.0397442       -0.245717     -0.000785465    -7.49999e-05
                    -0.000589233     0.000130574        -0.713298       -0.675953     -0.000739095     -0.00012434        0.0565812        0.178099
255800                 -0.184776        0.153911      0.000682116    -0.000397825        -0.305301        0.921582     -0.000574085     0.000116576
                     0.000687655    -0.000391455        -0.184715      -0.0436794      0.000408381    -5.09162e-05        -0.738296       -0.647288
                       -0.305352        0.921404      0.000291093      0.00012818       -0.0562978       -0.233804     -0.000791269    -6.60792e-05
                    -0.000577721      0.00016839         -0.73853       -0.647431     -0.000742283    -0.000104576        0.0674833          0.1774
256000                 -0.173787        0.153648      0.000644777    -0.000455318        -0.256015        0.938674     -0.000572267     0.000153698
                     0.000651568    -0.000435562        -0.188462       -0.040122      0.000405479    -0.000103278         -0.76242        -0.61778
                       -0.256123        0.938492      0.000304013     0.000105435       -0.0716018       -0.220618     -0.000797235    -5.67759e-05
                    -0.000563675     0.000204928        -0.762665        -0.61792     -0.000746619    -8.48884e-05        0.0783807        0.176016
256200                 -0.163161        0.152559      0.000602128    -0.000509504        -0.205651        0.953088      -0.00056801     0.000191204
                     0.000612532    -0.000477045        -0.192105      -0.0363086      0.000394269    -0.000139142         -0.78541       -0.587325
                       -0.205809        0.952907      0.000316822     8.32558e-05       -0.0855468       -0.206278     -0.000803333    -4.70571e-05
                    -0.000547313     0.000240054        -0.785666       -0.587461     -0.000751916     -6.5464e-05        0.0892304        0.173949
256400                 -0.152966        0.150686      0.000554476    -0.000559811        -0.154366        0.964739     -0.000561234     0.000228935
                     0.000570685    -0.000515752        -0.195628       -0.032243      0.000382959    -0.000164768        -0.807227       -0.555966
                       -0.154569        0.964565      0.000329503       6.118e-05       -0.0980352       -0.190915      -0.00080953    -3.68909e-05
                    -0.000528841      0.00027367        -0.807493       -0.556095     -0.000757974    -4.64254e-05        0.0999895        0.171201
256600                 -0.143261        0.148077      0.000502204      -0.0006057        -0.102326        0.973557     -0.000551863     0.000266721
                     0.000526164    -0.000551523        -0.199016      -0.0279298      0.000373468    -0.000184871        -0.827836       -0.523743
                       -0.102566        0.973394       0.00034201     3.88143e-05        -0.108982       -0.174667     -0.000815792    -2.62468e-05
                    -0.000508454     0.000305709        -0.828111       -0.523864     -0.000764595    -2.78384e-05         0.110615        0.167775
256800                 -0.134106        0.144783      0.000445762    -0.000646682       -0.0497019        0.979481     -0.000539832     0.000304375
                      0.00047911    -0.000584198        -0.202252      -0.0233748      0.000365821    -0.000202132        -0.847203       -0.490703
                      -0.0499718        0.979333      0.000354256     1.58134e-05        -0.118316       -0.157681     -0.000822079    -1.50958e-05
                    -0.000486331     0.000336129        -0.847484       -0.490815     -0.000771595    -9.72321e-06         0.121065        0.163681
257000                  -0.12555        0.140863      0.000385658    -0.000682327        0.0033281        0.982464     -0.000525086     0.000341698
                     0.000429668     -0.00061361        -0.205321      -0.0185844      0.000359609    -0.000218024        -0.865293       -0.456891
                      0.00303427        0.982333      0.000366117    -8.13265e-06         -0.12598       -0.140111     -0.000828347    -3.41109e-06
                    -0.000462632     0.000364908         -0.86558       -0.456992     -0.000778815     7.93301e-06         0.131296        0.158929
257200                 -0.117641        0.136377      0.000322452     -0.00071227        0.0565816        0.982472     -0.000507582     0.000378475
                     0.000377992    -0.000639589        -0.208209      -0.0135662       0.00035439    -0.000233378        -0.882075       -0.422354
                         0.05627        0.982358       0.00037742    -3.33041e-05        -0.131931       -0.122113     -0.000834551     8.83222e-06
                    -0.000437498     0.000392035        -0.882366       -0.422443     -0.000786116     2.51659e-05         0.141268        0.153531
257400                 -0.110418        0.131391      0.000256743    -0.000736217         0.109872        0.979483     -0.000487296     0.000414477
                     0.000324244    -0.000661956        -0.210899     -0.00832847      0.000349778    -0.000248682        -0.897521        -0.38714
                        0.109549        0.979387      0.000387943    -5.99522e-05        -0.136145       -0.103851     -0.000840637      2.1656e-05
                    -0.000411053      0.00041751        -0.897813       -0.387216     -0.000793386     4.20247e-05          0.15094        0.147503
257600                 -0.103917        0.125974      0.000189159    -0.000753955         0.163013        0.973489     -0.000464223     0.000449459
                     0.000268605    -0.000680527        -0.213378     -0.00288059      0.000345449    -0.000264236          -0.9116       -0.351298
                        0.162682        0.973411      0.000397403    -8.82949e-05        -0.138609      -0.0854867      -0.00084655     3.50789e-05
                    -0.000383403     0.000441335        -0.911892       -0.351362     -0.000800534     5.85656e-05         0.160271        0.140863
257800                -0.0981644        0.120195      0.000120341    -0.000765347         0.215813        0.964499     -0.000438383     0.000483163
                     0.000211269    -0.000695116        -0.215632      0.00276731      0.000341123    -0.000280232        -0.924288        -0.31488
                         0.21548        0.964438      0.000405454    -0.000118507        -0.139329       -0.067184     -0.000852229     4.91154e-05
                    -0.000354638     0.000463515        -0.924576       -0.314929     -0.000807484      7.4847e-05         0.169223        0.133632
258000                -0.0931821        0.114129      5.09351e-05    -0.000770335         0.268084        0.952534     -0.000409822     0.000515325
                     0.000152454    -0.000705531        -0.217647      0.00860417      0.000336551    -0.000296796        -0.935558       -0.277935
                        0.267752        0.952489      0.000411682    -0.000150706        -0.138327      -0.0491049     -0.000857609     6.37748e-05
                    -0.000324837     0.000484052        -0.935841       -0.277971     -0.000814178     9.09261e-05         0.177759        0.125831
258200                -0.0889842        0.107849     -1.84196e-05    -0.000768939          0.31964        0.937628     -0.000378619     0.000545668
                      9.2401e-05    -0.000711581         -0.21941       0.0146181      0.000331504    -0.000314005        -0.945388       -0.240517
                        0.319313        0.937598      0.000415607    -0.000184932        -0.135639       -0.031408     -0.000862618     7.90607e-05
                    -0.000294065     0.000502943        -0.945664        -0.24054     -0.000820568     0.000106857         0.185842        0.117487
258400                -0.0855778         0.10143     -8.71035e-05    -0.000761251         0.370296        0.919832     -0.000344887     0.000573918
                     3.13786e-05    -0.000713079        -0.220908       0.0207962      0.000325762    -0.000331901        -0.953756       -0.202679
                        0.369976        0.919815      0.000416686    -0.000221122        -0.131319      -0.0142474      -0.00086718     9.49693e-05
                     -0.00026238     0.000520178        -0.954022        -0.20269     -0.000826616      0.00012269         0.193436        0.108627
258600                -0.0829632       0.0949468     -0.000154524    -0.000747429         0.419872         0.89921     -0.000308776     0.000599799
                    -3.03148e-05    -0.000709843        -0.222129       0.0271251      0.000319106    -0.000350497        -0.960643       -0.164476
                        0.419563        0.899203      0.000414333    -0.000259084        -0.125432      0.00222938     -0.000871216     0.000111489
                    -0.000229834      0.00053574        -0.960897       -0.164475     -0.000832289     0.000138471         0.200509       0.0992813
258800                -0.0811336       0.0884737     -0.000220123    -0.000727694         0.468195        0.875836     -0.000270474     0.000623047
                    -9.23483e-05    -0.000701703        -0.223062       0.0335903      0.000311317    -0.000369773        -0.966031       -0.125962
                        0.467897         0.87584      0.000407946    -0.000298466        -0.118059       0.0178827     -0.000874641     0.000128597
                    -0.000196476     0.000549604        -0.966271        -0.12595     -0.000837556      0.00015424         0.207029       0.0894812
259000                -0.0800753       0.0820835     -0.000283386    -0.000702318         0.515098        0.849801     -0.000230209     0.000643412
                    -0.000154357    -0.000688504        -0.223696       0.0401767      0.000302171    -0.000389679        -0.969904      -0.0871935
                        0.514813        0.849813      0.000396945     -0.00033874        -0.109296       0.0325822     -0.000877369      0.00014626
                    -0.000162353     0.000561735        -0.970127      -0.0871731     -0.000842393     0.000170034         0.212965        0.079261
259200                 -0.079768       0.0758467     -0.000343843    -0.000671616          0.56042        0.821204     -0.000188247     0.000660667
                    -0.000215942    -0.000670117        -0.224022       0.0468683      0.000291442    -0.000410126        -0.972249      -0.0482269
                        0.560149        0.821223      0.000380832    -0.000379183       -0.0992472       0.0462082      -0.00087931     0.000164431
                    -0.000127517      0.00057209        -0.972453      -0.0481999     -0.000846773     0.000185884         0.218291       0.0686568
259400                -0.0801847       0.0698314     -0.000401071    -0.000635941         0.604011        0.790158     -0.000144889     0.000674615
                    -0.000276668     -0.00064644        -0.224031       0.0536485        0.0002789    -0.000430987        -0.973051     -0.00911963
                        0.603756        0.790182      0.000359257    -0.000418891       -0.0880294       0.0586528     -0.000880376      0.00018305
                    -9.20223e-05     0.000580616        -0.973237     -0.00908815     -0.000850668     0.000201818         0.222979       0.0577068
259600                -0.0812924       0.0641019     -0.000454701    -0.000595674          0.64573        0.756783     -0.000100468     0.000685097
                    -0.000336067    -0.000617409        -0.223713       0.0605002      0.000264322    -0.000452086        -0.972303       0.0300704
                        0.645491        0.756812      0.000332081    -0.000456807       -0.0757683       0.0698207     -0.000880479      0.00020204
                     -5.5931e-05     0.000587254        -0.972467       0.0301038     -0.000854049     0.000217859         0.227007       0.0464507
259800                -0.0830524       0.0587188     -0.000504413    -0.000551218         0.685447         0.72121     -5.53427e-05     0.000691995