! TOUCHSTONE file generated by CST MICROWAVE STUDIO
! Date and time: Sun Sep 21 00:09:52 2025
! Project name: biblioteca3.cst
! Parameters = {t_sub=1000; t_air=1000; k=0; n=0; wavelength_nm=0; H=600; Lx=200; Ly=260; P=520}
! Header version: 2018
! Port assignment regex: !\s*Touchstone port\s*([0-9]+)\s*=\s*(CST MWS port|CST DS port)\s*([0-9]+|Zmin|Zmax)\s*\(\"(.*)\"\)(\s*mode\s*([0-9]+))?.*
! Touchstone port assignment:
! Touchstone port 1 = CST MWS port Zmin ("") mode 1
! Touchstone port 2 = CST MWS port Zmin ("") mode 2
! Touchstone port 3 = CST MWS port Zmax ("") mode 1
! Touchstone port 4 = CST MWS port Zmax ("") mode 2
! S-Parameters are not renormalized. Unphysical impedance of 50 will be written to the file.
# GHz S RI R 50
250000                 -0.311385      -0.0267513      0.000311924      0.00027467         0.726678       -0.611675      4.27896e-05     0.000644934
                     0.000387838     0.000264661         -0.08848        0.162292     -0.000187692     0.000549783         0.576203        0.796008
                        0.726576       -0.611627     -0.000127167     0.000408188        0.0267624       -0.311381     -0.000333942     0.000207392
                     0.000131857     0.000588981          0.57612        0.796064     -0.000320483     0.000244954        -0.181817        0.033353
250200                  -0.31673      -0.0149174      0.000335963     0.000262391         0.698401       -0.641604      6.58828e-05     0.000641797
                     0.000398524     0.000245994        -0.085948        0.160316     -0.000166159     0.000552711         0.600341        0.778664
                        0.698258        -0.64156     -0.000137798     0.000428469        0.0119727       -0.316831     -0.000326291     0.000220777
                     0.000157651     0.000583018         0.600256        0.778736     -0.000314478     0.000259286        -0.176914       0.0423349
250400                 -0.321381     -0.00276863      0.000358841     0.000248178         0.668908       -0.670279      8.93329e-05     0.000637681
                     0.000408381     0.000227625       -0.0835686        0.158274     -0.000144564     0.000554745         0.624012        0.760525
                        0.668737       -0.670232     -0.000140457     0.000460913      -0.00336794       -0.321342     -0.000318154     0.000233947
                     0.000182947     0.000576113         0.623927        0.760609     -0.000307607      0.00027338        -0.171556       0.0510442
250600                 -0.325321      0.00964941       0.00038034      0.00023221         0.638258       -0.697658      0.000113091      0.00063253
                     0.000417463     0.000209503       -0.0813452        0.156174     -0.000122954      0.00055588         0.647187        0.741601
                         0.63807       -0.697605       -0.0001255     0.000499831        -0.019192       -0.324862     -0.000309533     0.000246877
                     0.000207738     0.000568302         0.647105        0.741695     -0.000299882     0.000287169        -0.165755       0.0594569
250800                 -0.328536       0.0222902      0.000400277     0.000214694         0.606509       -0.723701        0.0001371     0.000626291
                      0.00042581     0.000191586       -0.0792808        0.154023     -0.000101376     0.000556117         0.669839        0.721904
                        0.606314        -0.72364      -9.0854e-05     0.000531333       -0.0354274       -0.327349     -0.000300429     0.000259542
                     0.000232017     0.000559613         0.669762        0.722005     -0.000291322     0.000300588        -0.159523       0.0675492
251000                 -0.331014       0.0351064      0.000418512     0.000195861         0.573719        -0.74837      0.000161298     0.000618911
                     0.000433457     0.000173834       -0.0773782        0.151828      -7.9879e-05     0.000555459         0.691939        0.701445
                        0.573526       -0.748303     -4.68554e-05     0.000545259       -0.0519983       -0.328762     -0.000290845     0.000271917
                     0.000255776     0.000550075         0.691868         0.70155     -0.000281953     0.000313574        -0.152876        0.075298
251200                 -0.332748       0.0480503      0.000434943     0.000175955         0.539948       -0.771632      0.000185614     0.000610341
                     0.000440427     0.000156214       -0.0756398        0.149598     -5.85085e-05     0.000553909          0.71346        0.680237
                        0.539763       -0.771559     -5.61058e-06     0.000543275       -0.0688252       -0.329068     -0.000280786     0.000283975
                     0.000279012     0.000539712         0.713397        0.680344     -0.000271806     0.000326064        -0.145828       0.0826808
251400                 -0.333732       0.0610736      0.000449513     0.000155221         0.505254       -0.793453       0.00020997     0.000600536
                     0.000446737     0.000138697       -0.0740677         0.14734     -3.73116e-05     0.000551478         0.734374        0.658296
                        0.505082       -0.793377      2.78168e-05     0.000532488       -0.0858259       -0.328242      -0.00027026      0.00029569
                     0.000301716     0.000528545         0.734319        0.658401     -0.000260918     0.000338002        -0.138398       0.0896754
251600                 -0.333965       0.0741281      0.000462206     0.000133904         0.469696       -0.813803       0.00023428     0.000589454
                     0.000452398      0.00012126       -0.0726636        0.145064      -1.6334e-05     0.000548176         0.754654        0.635635
                        0.469541       -0.813727      5.37558e-05     0.000518497        -0.102916       -0.326262     -0.000259273     0.000307034
                     0.000323885     0.000516592         0.754607        0.635738     -0.000249332     0.000349334        -0.130604       0.0962607
251800                 -0.333448       0.0871655      0.000473041     0.000112234         0.433333       -0.832654      0.000258453     0.000577062
                     0.000457416     0.000103882       -0.0714289        0.142777      4.37917e-06     0.000544016         0.774273        0.612271
                        0.433197       -0.832581      7.41516e-05     0.000504151        -0.120008       -0.323114     -0.000247836     0.000317981
                     0.000345511      0.00050387         0.774235        0.612369     -0.000237094     0.000360012        -0.122465        0.102416
252000                 -0.332186        0.100138       0.00048207     9.04267e-05         0.396224       -0.849979       0.00028239     0.000563331
                     0.000461791     8.65497e-05       -0.0703645        0.140487      2.47837e-05     0.000539015         0.793204        0.588222
                        0.396109       -0.849913      9.08113e-05     0.000490554        -0.137016       -0.318793     -0.000235961     0.000328503
                     0.000366586      0.00049039         0.793174        0.588314     -0.000224255     0.000369992        -0.114002        0.108122
252200                 -0.330186        0.112998      0.000489371     6.86755e-05         0.358429       -0.865753      0.000305986     0.000548242
                     0.000465523      6.9251e-05       -0.0694709        0.138205      4.48368e-05     0.000533193         0.811421        0.563506
                        0.358333       -0.865697      0.000105029     0.000477988         -0.15385       -0.313299      -0.00022366     0.000338574
                     0.000387102     0.000476165         0.811398         0.56359     -0.000210869     0.000379236        -0.105237         0.11336
252400                  -0.32746        0.125698      0.000495043     4.71502e-05         0.320007       -0.879953       0.00032913     0.000531784
                     0.000468604     5.19797e-05       -0.0687484        0.135938      6.44964e-05     0.000526569         0.828897        0.538143
                        0.319928        -0.87991      0.000117655     0.000466409        -0.170423       -0.306637      -0.00021095     0.000348166
                     0.000407048     0.000461204          0.82888        0.538217     -0.000196991      0.00038771        -0.096193        0.118112
252600                 -0.324022        0.138194      0.000499201     2.59956e-05         0.281017       -0.892557      0.000351706     0.000513955
                     0.000471026     3.47333e-05       -0.0681967        0.133695      8.37222e-05     0.000519167         0.845607        0.512154
                        0.280954       -0.892529      0.000129237     0.000455666        -0.186645       -0.298823     -0.000197848     0.000357253
                     0.000426412     0.000445514         0.845596        0.512217     -0.000182681     0.000395389        -0.086894        0.122362
252800                 -0.319888         0.15044      0.000501967     5.33153e-06          0.24152       -0.903544      0.000373598     0.000494766
                     0.000472778     1.75135e-05        -0.067815        0.131485      0.000102475     0.000511013         0.861526        0.485559
                         0.24147       -0.903532      0.000140122     0.000445593        -0.202429       -0.289877     -0.000184373     0.000365809
                     0.000445179     0.000429101         0.861519        0.485611     -0.000167996      0.00040225       -0.0773652        0.126093
253000                 -0.315079        0.162392      0.000503471    -1.47462e-05         0.201577       -0.912896      0.000394683     0.000474237
                     0.000473848     3.26499e-07       -0.0676024        0.129318      0.000120717     0.000502133         0.876629        0.458382
                        0.201535         -0.9129      0.000150536     0.000436036         -0.21769       -0.279825     -0.000170546     0.000373808
                     0.000463334     0.000411969         0.876626        0.458423     -0.000152996     0.000408279        -0.067633        0.129292
253200                 -0.309616        0.174008      0.000503842    -3.41644e-05         0.161247       -0.920595      0.000414839     0.000452402
                     0.000474223    -1.68176e-05       -0.0675571        0.127202      0.000138411     0.000492557         0.890892        0.430647
                         0.16121       -0.920615      0.000160626     0.000426862        -0.232343       -0.268704     -0.000156391     0.000381225
                     0.000480857     0.000394124         0.890891        0.430676      -0.00013774     0.000413466       -0.0577244        0.131945
253400                 -0.303525        0.185248       0.00050321    -5.28702e-05         0.120593       -0.926625      0.000433947     0.000429305
                     0.000473887    -3.39042e-05       -0.0676771        0.125147      0.000155523     0.000482316         0.904292        0.402378
                        0.120557        -0.92666      0.000170486     0.000417963        -0.246307       -0.256552     -0.000141934     0.000388038
                     0.000497727     0.000375569         0.904292        0.402395     -0.000122286     0.000417805       -0.0476676        0.134041
253600                 -0.296834        0.196074      0.000501698     -7.0829e-05        0.0796768       -0.930971      0.000451886     0.000405005
                     0.000472826    -5.09147e-05         -0.06796        0.123162      0.000172019     0.000471441         0.916806        0.373602
                        0.079639       -0.931018       0.00018018     0.000409249        -0.259503       -0.243416     -0.000127201     0.000394222
                     0.000513918     0.000356307         0.916806        0.373607      -0.00010669     0.000421296       -0.0374913        0.135569
253800                 -0.289574        0.206447      0.000499422     -8.8022e-05        0.0385613       -0.933619      0.000468542     0.000379571
                     0.000471026    -6.78261e-05       -0.0684028        0.121255      0.000187864     0.000459967         0.928412        0.344345
                       0.0385183       -0.933675      0.000189749     0.000400645        -0.271854        -0.22935     -0.000112223     0.000399757
                     0.000529403     0.000336343          0.92841         0.34434     -9.10063e-05     0.000423943       -0.0272254         0.13652
254000                 -0.281777        0.216335      0.000496492    -0.000104444      -0.00268962       -0.934559      0.000483804     0.000353084
                     0.000468472    -8.46115e-05        -0.069002        0.119436      0.000203028     0.000447929         0.939089        0.314635
                     -0.00274031       -0.934619      0.000199219     0.000392091         -0.28329       -0.214412      -9.7031e-05     0.000404624
                     0.000544152      0.00031568         0.939084         0.31462     -7.52874e-05     0.000425756       -0.0169002        0.136886
254200                 -0.273479        0.225703      0.000493009      -0.0001201       -0.0440113       -0.933779       0.00049757     0.000325636
                     0.000465154     -0.00010124       -0.0697536        0.117714      0.000217479     0.000435364         0.948816        0.284502
                      -0.0440713        -0.93384      0.000208608     0.000383536        -0.293743       -0.198667     -8.16584e-05     0.000408803
                      0.00055813     0.000294326         0.948807        0.284478     -5.95828e-05     0.000426746      -0.00654688        0.136662
254400                 -0.264716        0.234523      0.000489066    -0.000135005       -0.0853379        -0.93127      0.000509745     0.000297329
                     0.000461059    -0.000117675       -0.0706534        0.116097      0.000231186     0.000422311         0.957574        0.253976
                      -0.0854081       -0.931327      0.000217925     0.000374938         -0.30315       -0.182183     -6.61406e-05     0.000412279
                       0.0005713     0.000272288          0.95756        0.253943     -4.39392e-05     0.000426927       0.00380304        0.135842
254600                 -0.255528        0.242767      0.000484745    -0.000149181        -0.126603       -0.927026      0.000520243     0.000268274
                      0.00045618     -0.00013388       -0.0716963        0.114595      0.000244117     0.000408811         0.965343        0.223087
                       -0.126683       -0.927075      0.000227174     0.000366261        -0.311451       -0.165037      -5.0515e-05     0.000415038
                     0.000583622     0.000249576         0.965324        0.223047     -2.84004e-05     0.000426317        0.0141174        0.134425
254800                 -0.245956        0.250411      0.000480121    -0.000162656        -0.167738       -0.921043      0.000528989     0.000238587
                     0.000450511    -0.000149811       -0.0728769        0.113215      0.000256243     0.000394908         0.972107        0.191867
                       -0.167826       -0.921077      0.000236355     0.000357474        -0.318596       -0.147306     -3.48203e-05     0.000417067
                     0.000595052     0.000226203         0.972082        0.191822     -1.30071e-05     0.000424937        0.0243635         0.13241
255000                 -0.236041        0.257432       0.00047526    -0.000175462        -0.208674       -0.913316      0.000535919     0.000208389
                     0.000444051    -0.000165423       -0.0741895        0.111967      0.000267531     0.000380646         0.977849         0.16035
                       -0.208769       -0.913331      0.000245466     0.000348552        -0.324536       -0.129075     -1.90974e-05     0.000418358
                     0.000605543     0.000202184         0.977816        0.160301      2.20308e-06     0.000422806        0.0345087        0.129796
255200                 -0.225829        0.263811      0.000470218    -0.000187635        -0.249341       -0.903845      0.000540981     0.000177803
                     0.000436801    -0.000180668       -0.0756275        0.110858      0.000277949     0.000366078         0.982552        0.128568
                       -0.249439       -0.903837      0.000254504     0.000339471        -0.329231       -0.110431     -3.38841e-06     0.000418905
                     0.000615046     0.000177542         0.982513        0.128516      1.71955e-05     0.000419949        0.0445197        0.126587
255400                 -0.215364        0.269533      0.000465045    -0.000199211        -0.289667       -0.892631      0.000544133     0.000146954
                     0.000428768    -0.000195493       -0.0771842        0.109896      0.000287462     0.000351257         0.986203       0.0965568
                       -0.289764       -0.892597      0.000263461     0.000330212        -0.332646      -0.0914657      1.22629e-05     0.000418702
                     0.000623508       0.0001523         0.986156       0.0965043      3.19384e-05     0.000416387        0.0543632        0.122787
255600                 -0.204693        0.274586      0.000459783    -0.000210229         -0.32958        -0.87968      0.000545343     0.000115961
                     0.000419964    -0.000209847       -0.0788522         0.10909      0.000296035     0.000336245         0.988789       0.0643514
                       -0.329671       -0.879616       0.00027233     0.000320758        -0.334754      -0.0722725      2.78113e-05     0.000417751
                     0.000630876      0.00012649         0.988734       0.0642995       4.6403e-05     0.000412146        0.0640059        0.118402
255800                 -0.193863        0.278959      0.000454467     -0.00022073        -0.369006       -0.864997      0.000544588     8.49375e-05
                     0.000410404    -0.000223675       -0.0806237        0.108446      0.000303632     0.000321112         0.990296       0.0319878
                       -0.369086       -0.864902      0.000281103     0.000311093        -0.335533      -0.0529483      4.32103e-05     0.000416054
                     0.000637092     0.000100148         0.990234       0.0319383       6.0563e-05     0.000407249        0.0734146        0.113439
256000                 -0.182921        0.282647      0.000449124    -0.000230753         -0.40787       -0.848592      0.000541852     5.39884e-05
                      0.00040011    -0.000236922       -0.0824904        0.107971      0.000310211     0.000305939         0.990714    -0.000497029
                       -0.407932       -0.848466       0.00028977     0.000301204         -0.33497       -0.033592      5.84121e-05     0.000413618
                     0.000642101     7.33177e-05         0.990645    -0.000542599      7.43947e-05     0.000401721        0.0825561         0.10791
256200                 -0.171915        0.285646      0.000443775    -0.000240338        -0.446097       -0.830479      0.000537125     2.32031e-05
                     0.000389111    -0.000249533       -0.0844436        0.107673      0.000315734     0.000290823         0.990033      -0.0330655
                       -0.446134       -0.830321       0.00029832     0.000291079         -0.33306      -0.0143041      7.33676e-05     0.000410454
                     0.000645845      4.6049e-05         0.989958      -0.0331057      8.78764e-05     0.000395585        0.0913976        0.101825
256400                 -0.160894        0.287959      0.000438434    -0.000249525        -0.483609       -0.810674      0.000530396     -7.3486e-06
                     0.000377441    -0.000261453       -0.0864741        0.107557      0.000320162     0.000275878         0.988246      -0.0656796
                       -0.483616       -0.810487      0.000306741     0.000280707        -0.329803      0.00481407      8.80262e-05     0.000406577
                     0.000648267     1.84004e-05         0.988166      -0.0657128      0.000100989     0.000388864        0.0999065       0.0951983
256600                 -0.149906        0.289588      0.000433106    -0.000258353        -0.520329       -0.789197      0.000521651     -3.7624e-05
                     0.000365139    -0.000272629       -0.0885723        0.107629      0.000323459     0.000261249         0.985345      -0.0983003
                         -0.5203       -0.788983      0.000315023     0.000270079         -0.32521       0.0236607      0.000102336     0.000402008
                     0.000649312     -9.5615e-06          0.98526      -0.0983252      0.000113714     0.000381581         0.108051       0.0880459
256800                 -0.138999        0.290542      0.000427793    -0.000266859         -0.55618       -0.766071      0.000510866    -6.76178e-05
                     0.000352251     -0.00028301       -0.0907282        0.107896      0.000325602      0.00024711         0.981325       -0.130888
                       -0.556109       -0.765835       0.00032315     0.000259187        -0.319298       0.0421341      0.000116244     0.000396774
                     0.000648929    -3.77618e-05         0.981236       -0.130904      0.000126035     0.000373759         0.115799        0.080385
257000                 -0.128219        0.290832      0.000422483    -0.000275081        -0.591083       -0.741325      0.000498004    -9.73776e-05
                     0.000338828     -0.00029255       -0.0929314        0.108362       0.00032659      0.00023368         0.976182       -0.163404
                       -0.590965       -0.741072      0.000331111     0.000248024        -0.312093       0.0601335      0.000129693     0.000390906
                     0.000647068    -6.61169e-05          0.97609       -0.163409      0.000137938     0.000365417         0.123121       0.0722353
257200                 -0.117612        0.290473       0.00041716    -0.000283053         -0.62496        -0.71499      0.000483003    -0.000127029
                      0.00032493    -0.000301203        -0.095171        0.109032      0.000326461     0.000221229         0.969913       -0.195807
                       -0.624791       -0.714727      0.000338891     0.000236584        -0.303629       0.0775595      0.000142625     0.000384446
                     0.000643688    -9.45345e-05          0.96982       -0.195801      0.000149409     0.000356575         0.129987        0.063618
257400                 -0.107225        0.289482      0.000411794    -0.000290809        -0.657732       -0.687102      0.000465774    -0.000156814
                     0.000310616     -0.00030893       -0.0974358        0.109909      0.000325326     0.000210083         0.962517       -0.228057
                        -0.65751       -0.686836      0.000346475     0.000224861        -0.293947       0.0943152      0.000154978     0.000377443
                     0.000638753    -0.000122914         0.962424       -0.228038      0.000160434     0.000347253         0.136367       0.0545564
257600                -0.0970995        0.287882      0.000406346    -0.000298379        -0.689323       -0.657702      0.000446201    -0.000187165
                     0.000295956    -0.000315699       -0.0997144        0.110998      0.000323406     0.000200621         0.953995       -0.260113
                       -0.689046       -0.657441      0.000353847     0.000212851        -0.283098        0.110306      0.000166681     0.000369959
                     0.000632236    -0.000151147         0.953903       -0.260081      0.000171001     0.000337469         0.142234       0.0450756
257800                -0.0872785        0.285696      0.000400758     -0.00030579        -0.719654       -0.626835       0.00042417    -0.000218819
                      0.00028102    -0.000321479        -0.101995        0.112301      0.000321096     0.000193243         0.944349       -0.291933
                       -0.719323       -0.626587      0.000360993     0.000200552        -0.271139        0.125442      0.000177656     0.000362073
                     0.000624119    -0.000179118         0.944259       -0.291888      0.000181097     0.000327238         0.147561       0.0352023
258000                -0.0778015        0.282953      0.000394961    -0.000313063         -0.74865       -0.594552      0.000399669    -0.000253034
                     0.000265882    -0.000326251        -0.104265        0.113821      0.000319028     0.000188304         0.933582       -0.323477
                       -0.748267       -0.594325      0.000367894      0.00018796        -0.258135        0.139636       0.00018781     0.000353884
                     0.000614396    -0.000206706         0.933496       -0.323419      0.000190711     0.000316579         0.152324       0.0249651
258200                -0.0687063        0.279683       0.00038886    -0.000320213        -0.776238       -0.560906      0.000373115    -0.000291942
                     0.000250619    -0.000329999        -0.106513        0.115558      0.000318111     0.000185978         0.921699       -0.354703
                       -0.775804       -0.560707      0.000374535     0.000175074         -0.24416        0.152806      0.000197024     0.000345525
                     0.000603074    -0.000233784         0.921619       -0.354631       0.00019983     0.000305504         0.156497       0.0143944
258400                -0.0600281        0.275921      0.000382339    -0.000327242        -0.802343       -0.525959      0.000346294    -0.000339008
                     0.000235312    -0.000332717        -0.108725        0.117516        0.0003195     0.000186052         0.908709        -0.38557
                       -0.801864       -0.525795      0.000380897     0.000161895        -0.229292        0.164878      0.000205136     0.000337175
                     0.000590175    -0.000260223         0.908635       -0.385484      0.000208443     0.000294029         0.160059      0.00352187
258600                -0.0517992        0.271701      0.000375255    -0.000334141        -0.826896       -0.489773       0.00032485    -0.000398901
                     0.000220038    -0.000334404         -0.11089        0.119693      0.000324396     0.000187712         0.894618       -0.416035
                       -0.826377       -0.489649      0.000386963     0.000148423        -0.213617        0.175781      0.000211911     0.000329091
                     0.000575732    -0.000285893         0.894553       -0.415937      0.000216534     0.000282167         0.162989     -0.00761895
258800                -0.0440491        0.267063      0.000367431    -0.000340879        -0.849829       -0.452417      0.000322874    -0.000473271
                     0.000204878    -0.000335067        -0.112993         0.12209      0.000333655     0.000189449         0.879438       -0.446059
                       -0.849276        -0.45234      0.000392713     0.000134659        -0.197228        0.185454      0.000216966     0.000321658
                     0.000559798    -0.000310665         0.879382       -0.445948      0.000224093     0.000269932         0.165268      -0.0189932
259000                -0.0368042        0.262048      0.000358655    -0.000347398        -0.871077       -0.413967      0.000360945    -0.000545198
                      0.00018991    -0.000334723        -0.115022        0.124706      0.000347321     0.000189287         0.863179       -0.475599
                       -0.870498       -0.413938       0.00039813     0.000120607        -0.180223         0.19384      0.000219613     0.000315492
                     0.000542439    -0.000334412         0.863134       -0.475477      0.000231103     0.000257335          0.16688      -0.0305647
259200                -0.0300875        0.256698       0.00034868    -0.000353601        -0.890579         -0.3745      0.000431989    -0.000572193
                     0.000175212    -0.000333394        -0.116964        0.127539      0.000364379     0.000185359         0.845856       -0.504614
                       -0.889981       -0.374522      0.000403193     0.000106271        -0.162703        0.200894       0.00021845     0.000311646
                     0.000523737    -0.000357014         0.845823       -0.504482      0.000237551     0.000244389         0.167808       -0.042296
259400                -0.0239183        0.251058      0.000337226    -0.000359344        -0.908277       -0.334099      0.000484059    -0.000544094
                     0.000160857    -0.000331108        -0.118805        0.130587      0.000382995     0.000176556         0.827484       -0.533065
                       -0.907667       -0.334172      0.000407883      9.1655e-05        -0.144774        0.206577      0.000210117     0.000312023
                     0.000503789    -0.000378359         0.827463       -0.532923       0.00024342     0.000231106         0.168041      -0.0541483
259600                -0.0183126        0.245174      0.000323991    -0.000364421        -0.924119       -0.292851      0.000493458    -0.000501123
                     0.000146915    -0.000327903        -0.120531        0.133846      0.000401147     0.000162836         0.808079        -0.56091
                       -0.923504       -0.292974       0.00041218     7.67664e-05        -0.126548         0.21086      0.000184513     0.000319761
                     0.000482708    -0.000398345         0.808071       -0.560761      0.000248695     0.000217496         0.167566      -0.0660819
259800                -0.0132822        0.239091       0.00030867     -0.00036855        -0.938056       -0.250847      0.000476572    -0.000469101