! TOUCHSTONE file generated by CST MICROWAVE STUDIO
! Date and time: Sun Sep 21 00:11:35 2025
! Project name: biblioteca3.cst
! Parameters = {t_sub=2000; t_air=1000; k=0; n=0; wavelength_nm=0; H=600; Lx=200; Ly=260; P=520}
! Header version: 2018
! Port assignment regex: !\s*Touchstone port\s*([0-9]+)\s*=\s*(CST MWS port|CST DS port)\s*([0-9]+|Zmin|Zmax)\s*\(\"(.*)\"\)(\s*mode\s*([0-9]+))?.*
! Touchstone port assignment:
! Touchstone port 1 = CST MWS port Zmin ("") mode 1
! Touchstone port 2 = CST MWS port Zmin ("") mode 2
! Touchstone port 3 = CST MWS port Zmax ("") mode 1
! Touchstone port 4 = CST MWS port Zmax ("") mode 2
! S-Parameters are not renormalized. Unphysical impedance of 50 will be written to the file.
# GHz S RI R 50
250000                 -0.224556       -0.212355      9.55961e-05    -0.000163533         0.569137        -0.76184      5.71198e-05     0.000550743
                      9.3887e-05    -0.000174319        0.0659253       -0.179796     -2.81556e-05     0.000493263         0.807621        0.557647
                        0.569307       -0.761992      0.000104744     0.000529453        -0.267337       -0.155131      0.000110545    -0.000219866
                      2.1367e-05     0.000485977         0.807116        0.557848      5.69988e-05      -0.0001937         0.144782       -0.125346
250200                 -0.229294       -0.195909      6.29448e-05    -0.000167888          0.52998       -0.792926      7.99283e-05       0.0005503
                     7.27022e-05    -0.000182137        0.0611609       -0.184705     -3.86003e-06     0.000502929         0.828612        0.524609
                        0.527794       -0.791813      0.000122318     0.000530905        -0.269187       -0.136451      9.01736e-05    -0.000296972
                     5.26867e-05     0.000485757         0.828369        0.524765      6.92108e-05    -0.000202588         0.140867       -0.134235
250400                 -0.232717       -0.179244      3.01574e-05    -0.000169112          0.48865       -0.822259      0.000103395     0.000548871
                     4.97978e-05    -0.000188828         0.056071       -0.189426      2.18607e-05      0.00051103         0.848307        0.490758
                        0.484716       -0.820022      0.000140608     0.000531646        -0.269484       -0.117747       9.9404e-05    -0.000359794
                     8.35965e-05     0.000483697         0.848272        0.490855      8.13067e-05    -0.000212962         0.136388       -0.142951
250600                 -0.234794       -0.162478      -2.4821e-06     -0.00016723         0.445219       -0.849658      0.000127492     0.000546378
                     2.51301e-05    -0.000194132        0.0506647       -0.193936      4.88747e-05     0.000517351         0.866672        0.456142
                        0.440062       -0.846446      0.000159601     0.000531586        -0.268217      -0.0991714      0.000118674    -0.000401583
                     0.000114002     0.000479891         0.866796        0.456173       9.3125e-05    -0.000224906         0.131352       -0.151457
250800                 -0.235506       -0.145734     -3.47001e-05    -0.000162289         0.399778       -0.874941      0.000152181     0.000542737
                    -1.31767e-06     -0.00019776        0.0449525       -0.198215      7.70117e-05     0.000521689         0.883676        0.420811
                        0.393844       -0.870912      0.000179275     0.000530636        -0.265391      -0.0808761      0.000136676    -0.000427956
                     0.000143824      0.00047443         0.883915        0.420775       0.00010448    -0.000238486         0.125771       -0.159714
251000                 -0.234846       -0.129141     -6.62352e-05     -0.00015436         0.352434       -0.897933      0.000177418     0.000537866
                    -2.95265e-05    -0.000199383        0.0389467       -0.202239      0.000106064     0.000523866         0.899287        0.384818
                          0.3461       -0.893249      0.000199596     0.000528699        -0.261028       -0.063016      0.000149971    -0.000445271
                     0.000172998     0.000467406         0.899603        0.384716      0.000115162    -0.000253751         0.119657       -0.167686
251200                 -0.232823       -0.112828     -9.68393e-05    -0.000143534         0.303311        -0.91846      0.000203147     0.000531681
                    -5.94302e-05    -0.000198643        0.0326613       -0.205989       0.00013579     0.000523729         0.913478        0.348214
                        0.296887        -0.91329       0.00022052     0.000525677        -0.255167      -0.0457438      0.000158425     -0.00045765
                     0.000201471     0.000458907         0.913838        0.348052      0.000124941    -0.000270718         0.113027       -0.175338
251400                 -0.229457      -0.0969264     -0.000126279    -0.000129921         0.252552       -0.936359      0.000229305     0.000524096
                    -9.09031e-05    -0.000195148        0.0261118       -0.209444      0.000165919     0.000521167         0.926222        0.311055
                        0.246287       -0.930869      0.000241987     0.000521471        -0.247865      -0.0292093      0.000162797    -0.000467398
                     0.000229201     0.000449016           0.9266        0.310842      0.000133568    -0.000289375         0.105898       -0.182633
251600                 -0.224784      -0.0815668     -0.000154334    -0.000113643         0.200316       -0.951474      0.000255816     0.000515031
                    -0.000123747    -0.000188485        0.0193152       -0.212586      0.000196159     0.000516109         0.937498        0.273395
                        0.194405       -0.945828      0.000263926     0.000515984        -0.239195      -0.0135565       0.00016391    -0.000475743
                     0.000256157     0.000437811         0.937868        0.273141       0.00014078    -0.000309667        0.0982919       -0.189538
251800                 -0.218856       -0.066877     -0.000180802    -9.48375e-05         0.146777       -0.963659      0.000282595     0.000504405
                    -0.000157676     -0.00017823        0.0122899       -0.215396      0.000226208     0.000508536         0.947281        0.235291
                        0.141365       -0.958016      0.000286247     0.000509119        -0.229247      0.00107847      0.000162444    -0.000483335
                     0.000282313     0.000425365         0.947626        0.235007      0.000146309    -0.000331496        0.0902313        -0.19602
252000                 -0.211736      -0.0529801     -0.000205491    -7.36532e-05        0.0921246       -0.972784      0.000309545     0.000492141
                    -0.000192304    -0.000163962       0.00505572       -0.217859      0.000255761     0.000498476         0.955555        0.196799
                       0.0873124       -0.967294      0.000308846     0.000500789        -0.218127       0.0145688      0.000158912    -0.000490517
                     0.000307653     0.000411742          0.95586        0.196498      0.000149887    -0.000354715        0.0817419       -0.202048
252200                 -0.203506      -0.0399931     -0.000228226    -5.02478e-05        0.0365642       -0.978729      0.000336558     0.000478169
                    -0.000227135    -0.000145291      -0.00236635       -0.219957      0.000284519      0.00048601           0.9623        0.157978
                       0.0324107        -0.97353      0.000331603     0.000490911        -0.205952       0.0267996      0.000153694    -0.000497463
                     0.000332162     0.000397002         0.962556        0.157672      0.000151263    -0.000379125        0.0728513       -0.207593
252400                 -0.194257      -0.0280249     -0.000248845    -2.47882e-05       -0.0196875       -0.981396      0.000363513     0.000462424
                    -0.000261557    -0.000121882      -0.00995413       -0.221679      0.000312208     0.000471265         0.967503        0.118886
                      -0.0231582       -0.976611      0.000354383     0.000479416        -0.192856        0.037669      0.000147068    -0.000504263
                     0.000355831     0.000381196         0.967702        0.118586      0.000150207    -0.000404479        0.0635895       -0.212626
252600                 -0.184095      -0.0171741     -0.000267197     2.55085e-06       -0.0764023         -0.9807      0.000390279     0.000444851
                     -0.00029484    -9.34897e-05       -0.0176844       -0.223011      0.000338576     0.000454409          0.97115       0.0795815
                      -0.0791965       -0.976436      0.000377035     0.000466248        -0.178981         0.04709      0.000139242    -0.000510952
                     0.000378652     0.000364369          0.97129       0.0792996      0.000146524     -0.00043048        0.0539879       -0.217122
252800                 -0.173135     -0.00752823     -0.000283146     3.15874e-05        -0.133343       -0.976579      0.000416715     0.000425405
                    -0.000326156     -5.9995e-05        -0.025533       -0.223942      0.000363412     0.000435648         0.973231       0.0401241
                       -0.135492       -0.972924      0.000399396     0.000451371        -0.164479       0.0549918      0.000130369     -0.00051754
                     0.000400621     0.000346561         0.973311       0.0398708      0.000140069    -0.000456793        0.0440802       -0.221057
253000                 -0.161506     0.000838495     -0.000296567     6.21326e-05        -0.190264       -0.968988      0.000442667     0.000404053
                    -0.000354593    -2.14426e-05        -0.033475       -0.224464      0.000386542      0.00041521         0.973738     0.000573766
                       -0.191821       -0.966012      0.000421293     0.000434765         -0.14951       0.0613203      0.000120565    -0.000524019
                     0.000421731     0.000327803         0.973761     0.000358203      0.000130749    -0.000483051        0.0339014       -0.224409
253200                  -0.14934      0.00786603     -0.000307347     9.39907e-05        -0.246916       -0.957906      0.000467975     0.000380777
                    -0.000379201     2.19283e-05       -0.0414847       -0.224568      0.000407838     0.000393342         0.972665      -0.0390094
                        -0.24795       -0.955658      0.000442545     0.000416437        -0.134238       0.0660396      0.000109916    -0.000530373
                     0.000441975     0.000308123         0.972634      -0.0391795      0.000118539     -0.00050887        0.0234883       -0.227159
253400                 -0.136779       0.0135096     -0.000315385      0.00012696        -0.303045       -0.943333      0.000492471     0.000355574
                    -0.000399037     6.96621e-05       -0.0495358        -0.22425      0.000427215     0.000370297         0.970007      -0.0785648
                       -0.303636       -0.941842      0.000462967     0.000396416        -0.118831       0.0691317      9.84911e-05    -0.000536577
                     0.000461345     0.000287542         0.969928      -0.0786833      0.000103477    -0.000533859        0.0128789       -0.229289
253600                 -0.123969       0.0177404     -0.000320591      0.00016083          -0.3584        -0.92529      0.000515978     0.000328458
                    -0.000413228     0.000121081       -0.0576017       -0.223504      0.000444632     0.000346325         0.965763       -0.118032
                       -0.358633       -0.924565      0.000482377      0.00037476        -0.103458       0.0705973      8.63418e-05    -0.000542607
                      0.00047983     0.000266077         0.965643       -0.118094      8.56728e-05    -0.000557638       0.00211235       -0.230786
253800                 -0.111057       0.0205463     -0.000322888     0.000195385        -0.412728       -0.903821       0.00053832     0.000299464
                    -0.000421034     0.000175297       -0.0656553       -0.222329      0.000460088      0.00032167         0.959933        -0.15735
                       -0.412694       -0.903854      0.000500596     0.000351551       -0.0882843       0.0704552      7.35095e-05    -0.000548432
                     0.000497417      0.00024374         0.959779       -0.157353      6.52957e-05    -0.000579854      -0.00877096       -0.231637
254000                -0.0981915       0.0219316     -0.000322213     0.000230403        -0.465781       -0.878992      0.000559316     0.000268643
                    -0.000421904      0.00023125       -0.0736693       -0.220725      0.000473614     0.000296556         0.952519       -0.196458
                       -0.465571       -0.879757      0.000517457     0.000326897       -0.0734747       0.0687423      6.00269e-05    -0.000554023
                     0.000514086     0.000220539         0.952341       -0.196401      4.25732e-05    -0.000600187       -0.0197299       -0.231832
254200                -0.0855195       0.0219174     -0.000318515     0.000265653        -0.517319       -0.850891      0.000578787     0.000236072
                    -0.000415529     0.000287762       -0.0816164       -0.218691      0.000485273     0.000271189         0.943526       -0.235295
                       -0.517018       -0.852345      0.000532805     0.000300932       -0.0591873       0.0655128      4.59207e-05    -0.000559346
                     0.000529817     0.000196481         0.943332       -0.235178       1.7778e-05    -0.000618368       -0.0307224       -0.231365
254400                -0.0731834       0.0205407     -0.000311757     0.000300898         -0.56711       -0.819624      0.000596558     0.000201844
                    -0.000401865     0.000343604       -0.0894692       -0.216233       0.00049515     0.000245752          0.93296       -0.273801
                       -0.566797       -0.821712      0.000546506     0.000273809       -0.0455726       0.0608376      3.12128e-05    -0.000564369
                      0.00054458      0.00017157         0.932759       -0.273626     -8.78343e-06    -0.000634182       -0.0417061       -0.230231
254600                -0.0613203       0.0178543     -0.000301922     0.000335893        -0.614932       -0.785317      0.000612463     0.000166075
                    -0.000381136     0.000397574       -0.0972005       -0.213355      0.000503347       0.0002204          0.92083       -0.311914
                       -0.614678       -0.787973      0.000558451       0.0002457       -0.0327723       0.0548028      1.59219e-05    -0.000569056
                     0.000558344     0.000145807          0.92063       -0.311684     -3.67841e-05    -0.000647472       -0.0526379       -0.228429
254800                -0.0500597       0.0139253     -0.000289005     0.000370389        -0.660575       -0.748116      0.000626343     0.000128903
                    -0.000353817     0.000448564        -0.104783       -0.210063      0.000509979     0.000195264         0.907147       -0.349574
                        -0.66025       -0.751046      0.000568553     0.000216791       -0.0209173        0.047509      6.46911e-08    -0.000573373
                     0.000571068     0.000119194         0.906956       -0.349293     -6.58896e-05    -0.000658139       -0.0634747       -0.225959
255000                -0.0395221      0.00883445     -0.000273025     0.000404129        -0.703845       -0.708179      0.000638053     9.04825e-05
                    -0.000320587     0.000495625        -0.112191       -0.206366      0.000515169     0.000170449         0.891924        -0.38672
                       -0.703171       -0.711021      0.000576756     0.000187276       -0.0101261       0.0390693      -1.6344e-05    -0.000577282
                     0.000582708     9.17344e-05         0.891748       -0.386394     -9.57697e-05     -0.00066614        -0.074173       -0.222827
255200                -0.0298171      0.00267439     -0.000254018     0.000436854        -0.744561       -0.665683      0.000647463     5.09876e-05
                    -0.000282278        0.000538        -0.119397       -0.202275      0.000519039     0.000146037         0.875174       -0.423291
                       -0.743668       -0.668549      0.000583029     0.000157352     -0.000503957       0.0296085     -3.32898e-05    -0.000580744
                     0.000593211     6.34302e-05          0.87502       -0.422927     -0.000126108    -0.000671481       -0.0846897       -0.219037
255400                -0.0210426     -0.00445158     -0.000232043     0.000468302         -0.78256       -0.620814      0.000654464     1.06071e-05
                    -0.000239806     0.000575149        -0.126377       -0.197801      0.000521714     0.000122086         0.856916       -0.459228
                       -0.781591       -0.623791      0.000587372     0.000127215       0.00785849       0.0192605     -5.07587e-05     -0.00058372
                     0.000602518     3.42879e-05         0.856789       -0.458833     -0.000156612    -0.000674213       -0.0949816         -0.2146
255600                -0.0132837      -0.0124312     -0.000207185     0.000498207        -0.817696       -0.573772      0.000658963    -3.04567e-05
                    -0.000194119     0.000606744        -0.133105       -0.192959      0.000523313     9.86359e-05         0.837168       -0.494471
                       -0.816802       -0.576918      0.000589812     9.70551e-05        0.0148859      0.00816744     -6.87361e-05     -0.00058617
                     0.000610562     4.31687e-06         0.837071       -0.494052     -0.000187014    -0.000674422        -0.105006       -0.209528
255800               -0.00661166       -0.021145     -0.000179551     0.000526308        -0.849841       -0.524762      0.000660893    -7.19914e-05
                    -0.000146142     0.000632655        -0.139557       -0.187764      0.000523949     7.57071e-05         0.815951        -0.52896
                       -0.849175       -0.528111      0.000590398     6.70502e-05        0.0205189     -0.00352264     -8.72067e-05    -0.000588049
                      0.00061727    -2.64686e-05         0.815888       -0.528525     -0.000217079    -0.000672219        -0.114721       -0.203836
256000               -0.00108373      -0.0304679     -0.000149275     0.000552348        -0.878886          -0.474      0.000660208    -0.000113778
                    -9.67334e-05     0.000652919        -0.145711       -0.182234       0.00052373     5.33058e-05         0.793288       -0.562634
                       -0.878602       -0.477556      0.000589205     3.73644e-05        0.0247143      -0.0156575     -0.000106154    -0.000589315
                     0.000622562    -5.80479e-05          0.79326       -0.562192     -0.000246604    -0.000667737        -0.124084       -0.197541
256200                 0.0032574      -0.0402712     -0.000116521     0.000576073        -0.904738       -0.421704      0.000656886    -0.000155592
                    -4.66654e-05     0.000667707        -0.151543       -0.176386       0.00052275     3.14244e-05         0.769203       -0.595437
                       -0.904984       -0.425446      0.000586321     8.14419e-06        0.0274458      -0.0280823     -0.000125559    -0.000589921
                      0.00062635    -9.03932e-05         0.769212       -0.594994     -0.000275418    -0.000661121        -0.133055       -0.190663
256400                 0.0063836      -0.0504242     -8.14763e-05     0.000597245        -0.927327       -0.368096      0.000650931    -0.000197211
                       3.396e-06     0.000677288        -0.157033       -0.170241      0.000521098     1.00445e-05         0.743726       -0.627308
                        -0.92824       -0.371981      0.000581853     -2.0483e-05        0.0287031       -0.040642     -0.000145402    -0.000589821
                     0.000628541    -0.000123467         0.743769       -0.626872     -0.000303379     -0.00065252        -0.141595       -0.183227
256600                0.00828108      -0.0607959     -4.43586e-05     0.000615638        -0.946596         -0.3134      0.000642369    -0.000238414
                     5.28932e-05     0.000681999        -0.162161       -0.163822       0.00051885    -1.08614e-05         0.716883       -0.658189
                       -0.948304       -0.317363      0.000575914    -4.84105e-05        0.0284926      -0.0531826     -0.000165658    -0.000588966
                     0.000629035    -0.000157222         0.716961       -0.657768     -0.000330375    -0.000642086        -0.149665       -0.175257
256800                0.00895013      -0.0712565     -5.41097e-06     0.000631042        -0.962509       -0.257838       0.00063125    -0.000278985
                     0.000101374      0.00068221        -0.166908        -0.15715      0.000516074    -3.13283e-05         0.688708       -0.688022
                        -0.96448       -0.261619      0.000568628    -7.55522e-05        0.0268363      -0.0655528     -0.000186303    -0.000587306
                      0.00062773    -0.000191598         0.688817       -0.687622     -0.000356315    -0.000629968        -0.157226       -0.166783
257000                0.00840454      -0.0816792      3.50977e-05     0.000643271        -0.975045       -0.201632      0.000617644    -0.000318721
                      0.00014848     0.000678309        -0.171257       -0.150252      0.000512826     -5.1397e-05         0.659234        -0.71675
                       -0.977121       -0.205157      0.000560119    -0.000101843        0.0237716      -0.0776063     -0.000207305    -0.000584788
                     0.000624517    -0.000226522         0.659371       -0.716377     -0.000381133    -0.000616306        -0.164245       -0.157834
257200                0.00667097      -0.0919413      7.68756e-05     0.000652166        -0.984202          -0.145      0.000601642    -0.000357425
                     0.000193941     0.000670677        -0.175193       -0.143152      0.000509151    -7.11129e-05         0.628497       -0.744316
                       -0.986343       -0.148243       0.00055051    -0.000127236        0.0193501      -0.0892025     -0.000228632    -0.000581362
                      0.00061929    -0.000261904         0.628658       -0.743975     -0.000404778    -0.000601236        -0.170686       -0.148445
257400                0.00378804       -0.101926       0.00011961     0.000657596        -0.989989      -0.0881545       0.00058335    -0.000394918
                     0.000237553     0.000659681        -0.178701       -0.135878      0.000505088    -9.05246e-05         0.596536       -0.770663
                       -0.992157      -0.0910997      0.000539924    -0.000151703        0.0136373       -0.100209     -0.000250244    -0.000576972
                     0.000611937     -0.00029764         0.596716       -0.770359     -0.000427216    -0.000584882        -0.176517       -0.138652
257600               -0.00019449       -0.111522      0.000162971     0.000659463        -0.992434      -0.0313044       0.00056289    -0.000431034
                     0.000279174     0.000645665        -0.181768       -0.128457       0.00050066    -0.000109683         0.563389       -0.795736
                       -0.994591      -0.0339438      0.000528476    -0.000175233       0.00671107         -0.1105     -0.000272099    -0.000571564
                     0.000602355    -0.000333607         0.563584       -0.795472     -0.000448423    -0.000567358        -0.181709       -0.128493
257800               -0.00521683       -0.120627      0.000206617     0.000657703        -0.991573       0.0253493      0.000540397    -0.000465626
                     0.000318704     0.000628944        -0.184384       -0.120921      0.000495886    -0.000128641         0.529102        -0.81948
                       -0.993685       0.0230156      0.000516274    -0.000197829      -0.00133941       -0.119964     -0.000294148    -0.000565083
                     0.000590441    -0.000369662         0.529306       -0.819257     -0.000468383    -0.000548769        -0.186232       -0.118009
258000                -0.0112102       -0.129145      0.000250196     0.000652293         -0.98746        0.081612      0.000516013    -0.000498561
                      0.00035608     0.000609804        -0.186541       -0.113298      0.000490771     -0.00014745         0.493719        -0.84184
                       -0.989493       0.0795777      0.000503419    -0.000219505       -0.0104148       -0.128495     -0.000316337    -0.000557474
                     0.000576102    -0.000405644         0.493926        -0.84166     -0.000487089    -0.000529207         -0.19006       -0.107244
258200                 -0.018098       -0.136993      0.000293354     0.000643246        -0.980157        0.137298      0.000489888    -0.000529726
                     0.000391261     0.000588501         -0.18823        -0.10562      0.000485312    -0.000166164         0.457289       -0.862762
                       -0.982083         0.13555      0.000489999    -0.000240287        -0.020407       -0.136002     -0.000338604    -0.000548682
                     0.000559257    -0.000441374         0.457493       -0.862627     -0.000504536    -0.000508759        -0.193171       -0.096242
258400                -0.0257969       -0.144094      0.000335738     0.000630617        -0.969735        0.192228      0.000462177    -0.000559025
                     0.000424226     0.000565264        -0.189448      -0.0979186      0.000479498    -0.000184833         0.419861       -0.882195
                        -0.97153         0.19075      0.000476095    -0.000260208       -0.0312006       -0.142407     -0.000360882    -0.000538652
                     0.000539838    -0.000476652         0.420058       -0.882102     -0.000520721      -0.0004875        -0.195544      -0.0850512
258600                -0.0342181       -0.150381      0.000377001       0.0006145        -0.956277        0.246233      0.000433035     -0.00058638
                     0.000454964     0.000540299        -0.190191      -0.0902272      0.000473306    -0.000203508         0.381489       -0.900086
                       -0.957921        0.245003      0.000461776     -0.00027931        -0.042674       -0.147642     -0.000383094    -0.000527331
                     0.000517797     -0.00051126         0.381674       -0.900035     -0.000535645    -0.000465498        -0.197161      -0.0737207
258800                -0.0432684         -0.1558      0.000416811     0.000595025        -0.939872        0.299152      0.000402617    -0.000611729
                     0.000483467     0.000513789        -0.190459      -0.0825787      0.000466704    -0.000222233          0.34223       -0.916386
                       -0.941351        0.298147        0.0004471    -0.000297636       -0.0547013       -0.151655     -0.000405158    -0.000514669
                     0.000493107    -0.000544965         0.342397       -0.916373     -0.000549306    -0.000442815        -0.198008      -0.0623018
259000                -0.0528515       -0.160305      0.000454851     0.000572363        -0.920618        0.350834      0.000371077    -0.000635023
                     0.000509733     0.000485902        -0.190253      -0.0750068      0.000459653    -0.000241053         0.302141       -0.931044
                       -0.921921        0.350028      0.000432116    -0.000315235       -0.0671534       -0.154405     -0.000426982    -0.000500618
                     0.000465768    -0.000577522         0.302286       -0.931068     -0.000561702    -0.000419505        -0.198071      -0.0508473
259200                -0.0628688       -0.163862      0.000490828     0.000546714        -0.898617        0.401136      0.000338563     -0.00065623
                     0.000533757     0.000456788        -0.189578      -0.0675455        0.0004521    -0.000260005         0.261284       -0.944014
                        -0.89974        0.400503      0.000416859    -0.000332157       -0.0798994       -0.155865     -0.000448464    -0.000485134
                     0.000435808    -0.000608671         0.261404        -0.94407     -0.000572828    -0.000395621        -0.197345      -0.0394116
259400                -0.0732209       -0.166446      0.000524473     0.000518312        -0.873979        0.449925      0.000305219    -0.000675331
                     0.000555532     0.000426592        -0.188439      -0.0602289      0.000443986     -0.00027912         0.219723       -0.955248
                       -0.874921        0.449437       0.00040136    -0.000348453       -0.0928082       -0.156023     -0.000469495    -0.000468179
                     0.000403287    -0.000638152         0.219816       -0.955332     -0.000582678    -0.000371209        -0.195823      -0.0280503
259600                -0.0838082       -0.168042      0.000555548     0.000487414        -0.846816        0.497076      0.000271182    -0.000692316
                     0.000575046     0.000395447        -0.186846      -0.0530911      0.000435241    -0.000298423         0.177527       -0.964703
                        -0.84758        0.496706      0.000385634    -0.000364174        -0.105749       -0.154878     -0.000489955    -0.000449719
                       0.0003683    -0.000665698         0.177589       -0.964811     -0.000591241    -0.000346313        -0.193505      -0.0168201
259800                -0.0945322       -0.168646      0.000583848     0.000454302        -0.817246        0.542473      0.000236581    -0.000707186