! TOUCHSTONE file generated by CST MICROWAVE STUDIO
! Date and time: Sun Sep 21 00:16:52 2025
! Project name: biblioteca3.cst
! Parameters = {t_sub=2000; t_air=1200; k=0; n=0; wavelength_nm=0; H=600; Lx=200; Ly=260; P=520}
! Header version: 2018
! Port assignment regex: !\s*Touchstone port\s*([0-9]+)\s*=\s*(CST MWS port|CST DS port)\s*([0-9]+|Zmin|Zmax)\s*\(\"(.*)\"\)(\s*mode\s*([0-9]+))?.*
! Touchstone port assignment:
! Touchstone port 1 = CST MWS port Zmin ("") mode 1
! Touchstone port 2 = CST MWS port Zmin ("") mode 2
! Touchstone port 3 = CST MWS port Zmax ("") mode 1
! Touchstone port 4 = CST MWS port Zmax ("") mode 2
! S-Parameters are not renormalized. Unphysical impedance of 50 will be written to the file.
# GHz S RI R 50
250000                 -0.221521       -0.212349      4.93165e-05      0.00029203        -0.945185       -0.111993     -4.76166e-05    -6.09852e-05
                    -1.41197e-05     0.000282495        0.0627068       -0.180926     -3.42956e-05    -6.71035e-05        0.0825636       -0.977999
                       -0.944924       -0.112103     -7.07995e-05    -5.00737e-05         0.265009         -0.1547     -0.000262134    -5.24189e-05
                    -8.27122e-06     1.94191e-05        0.0824136       -0.977782     -0.000280643    -5.07307e-05        0.0314987        0.188869
250200                 -0.226232       -0.195825      5.27921e-05      0.00028556        -0.952409      -0.0593192     -5.22437e-05    -5.85039e-05
                    -8.30673e-06        0.000271         0.057862       -0.185681     -3.56043e-05    -6.55251e-05        0.0417463       -0.980007
                       -0.952205      -0.0594697     -7.12402e-05    -4.33343e-05         0.248786       -0.166233     -0.000261947    -3.38448e-05
                    -7.42285e-06     2.79794e-05        0.0416025       -0.979737     -0.000283963    -4.08046e-05        0.0418661        0.189918
250400                 -0.229602       -0.179165      5.56775e-05     0.000279344        -0.956717     -0.00593185     -5.68121e-05    -5.54091e-05
                     -7.8656e-07     0.000260632        0.0526999       -0.190222      -3.6938e-05    -6.37632e-05      0.000872023        -0.98032
                       -0.956563      -0.0060997     -7.13681e-05    -3.65981e-05         0.231812       -0.176295      -0.00026036    -1.48532e-05
                    -7.88052e-06     3.90963e-05      0.000743744       -0.980005      -0.00028706    -2.97792e-05         0.052361        0.190304
250600                 -0.231619       -0.162484      5.80109e-05     0.000273435         -0.95803       0.0480102     -6.12207e-05    -5.16772e-05
                     7.98465e-06     0.000251609        0.0472331       -0.194531     -3.82922e-05    -6.17997e-05       -0.0399903       -0.978939
                       -0.957916       0.0478432     -7.11847e-05    -2.98742e-05         0.214222       -0.184817     -0.000257276     4.42471e-06
                    -1.12521e-05     5.35405e-05       -0.0400956       -0.978585      -0.00028979    -1.76041e-05        0.0629394        0.190019
250800                 -0.232283       -0.145901       5.9835e-05     0.000267882        -0.956275        0.102338     -6.53572e-05    -4.73052e-05
                     1.75638e-05      0.00024399        0.0414757       -0.198587     -3.96613e-05    -5.96149e-05       -0.0807721       -0.975865
                       -0.956192        0.102186     -7.06912e-05    -2.31716e-05         0.196156       -0.191743     -0.000252613     2.38381e-05
                    -2.07926e-05     7.14877e-05       -0.0808484       -0.975479     -0.000291988    -4.24089e-06        0.0735569        0.189055
251000                 -0.231603       -0.129535      6.11961e-05     0.000262728        -0.951391        0.156874     -6.91039e-05    -4.23153e-05
                     2.75679e-05     0.000237709        0.0354427       -0.202373     -4.10373e-05    -5.71874e-05        -0.121405       -0.971103
                       -0.951326        0.156746     -6.98881e-05    -1.64984e-05         0.177762       -0.197027     -0.000246306     4.32183e-05
                    -4.19654e-05     9.00402e-05        -0.121448       -0.970692     -0.000293472     1.03318e-05        0.0841685        0.187409
251200                 -0.229601       -0.113504      6.21439e-05      0.00025801        -0.943325        0.211432     -7.23443e-05    -3.67576e-05
                     3.76947e-05     0.000232625        0.0291506       -0.205869     -4.24101e-05    -5.44942e-05        -0.161821       -0.964659
                       -0.943266        0.211332     -6.87755e-05    -9.86284e-06         0.159194        -0.20064     -0.000238315     6.23813e-05
                    -7.86073e-05     9.82906e-05        -0.161828       -0.964231     -0.000294039     2.61134e-05         0.094729         0.18508
251400                 -0.226309      -0.0979269      6.27306e-05     0.000253762        -0.932034        0.265816     -7.49712e-05    -3.07104e-05
                     4.77236e-05     0.000228558        0.0226166       -0.209061     -4.37662e-05    -5.15105e-05        -0.201954       -0.956543
                       -0.931972        0.265746     -6.73527e-05    -3.27275e-06         0.140611       -0.202566     -0.000228623     8.11314e-05
                    -0.000119303     8.07923e-05        -0.201921       -0.956104     -0.000293471      4.3075e-05         0.105193        0.182069
251600                 -0.221771      -0.0829193      6.30107e-05     0.000250011        -0.917492        0.319823     -7.68954e-05    -2.42773e-05
                     5.75053e-05     0.000225319        0.0158589       -0.211933     -4.50887e-05    -4.82098e-05        -0.241735       -0.946766
                       -0.917416        0.319782     -6.56185e-05     3.26398e-06         0.122173       -0.202806     -0.000217245     9.92659e-05
                    -0.000139568     4.29683e-05        -0.241663       -0.946324     -0.000291534     6.11538e-05         0.115516        0.178382
251800                 -0.216043      -0.0685935        6.304e-05     0.000246779        -0.899683        0.373244     -7.80529e-05    -1.75817e-05
                     6.69463e-05     0.000222727       0.00889696       -0.214469     -4.63558e-05    -4.45644e-05        -0.281099       -0.935344
                       -0.899586        0.373229     -6.35704e-05     9.73938e-06         0.104043       -0.201378     -0.000204225      0.00011658
                    -0.000135871     8.51243e-06        -0.280987       -0.934903     -0.000287985      8.0246e-05         0.125652        0.174027
252000                 -0.209192      -0.0550571      6.28758e-05     0.000244084        -0.878608        0.425864     -7.84098e-05    -1.07592e-05
                     7.59941e-05     0.000220617       0.00175083       -0.216657     -4.75404e-05    -4.05453e-05        -0.319979       -0.922292
                       -0.878485        0.425868     -6.12056e-05     1.61452e-05        0.0863833       -0.198314     -0.000189641     0.000132875
                    -0.000122138    -1.29152e-05        -0.319828       -0.921858     -0.000282579     0.000100201         0.135556        0.169015
252200                 -0.201296      -0.0424117      6.25758e-05     0.000241937        -0.854283        0.477462     -7.79644e-05      -3.948e-06
                      8.4624e-05     0.000218846      -0.00555849       -0.218485     -4.86083e-05    -3.61231e-05        -0.358312       -0.907629
                       -0.854132        0.477478     -5.85199e-05     2.24726e-05        0.0693526       -0.193667     -0.000173602     0.000147962
                     -0.00010766    -2.42304e-05        -0.358123       -0.907207     -0.000275078     0.000120819         0.145186        0.163359
252400                 -0.192444      -0.0307517      6.21979e-05     0.000240346        -0.826744        0.527817     -7.67461e-05      2.7203e-06
                     9.28281e-05     0.000217292       -0.0130093       -0.219941     -4.95177e-05    -3.12687e-05        -0.396032       -0.891378
                       -0.826563        0.527838     -5.55085e-05     2.87124e-05        0.0531063       -0.187503     -0.000156245     0.000161668
                    -9.52764e-05    -2.97237e-05        -0.395808       -0.890971     -0.000265263     0.000141841         0.154498        0.157076
252600                 -0.182733      -0.0201628      6.18001e-05     0.000239311        -0.796041        0.576703     -7.48113e-05     9.12874e-06
                     0.000100608     0.000215854       -0.0205791       -0.221018     -5.02169e-05    -2.59543e-05        -0.433075        -0.87356
                       -0.795832        0.576722     -5.21652e-05      3.4854e-05         0.037793       -0.179908     -0.000137735     0.000173845
                    -8.52328e-05    -3.21162e-05        -0.432818       -0.873173     -0.000252945     0.000162959          0.16345        0.150185
252800                 -0.172271      -0.0107212      6.14395e-05      0.00023883        -0.762244        0.623897     -7.22369e-05     1.51808e-05
                     0.000107969     0.000214448       -0.0282449       -0.221705     -5.06436e-05    -2.01558e-05        -0.469381       -0.854202
                        -0.76201        0.623906     -4.84832e-05     4.08861e-05        0.0235531       -0.170983     -0.000118256     0.000184371
                    -7.71252e-05    -3.28701e-05        -0.469093       -0.853837     -0.000237983     0.000183811         0.172001         0.14271
253000                 -0.161174     -0.00249222      6.11727e-05     0.000238894        -0.725442        0.669178      -6.9113e-05     2.08039e-05
                     0.000114914     0.000213004       -0.0359832       -0.221998      -5.0723e-05    -1.38543e-05        -0.504885       -0.833332
                       -0.725189        0.669171     -4.44546e-05     4.67957e-05        0.0105167       -0.160842     -9.80095e-05     0.000193157
                    -7.04967e-05    -3.27477e-05         -0.50457       -0.832991     -0.000220295     0.000203991         0.180111        0.134674
253200                 -0.149564      0.00447085      6.10549e-05     0.000239491        -0.685744        0.712327     -6.55355e-05     2.59496e-05
                     0.000121444     0.000211468       -0.0437697       -0.221889     -5.03666e-05    -7.04016e-06        -0.539528       -0.810979
                       -0.685478          0.7123     -4.00705e-05     5.25681e-05      -0.00119838       -0.149618     -7.72032e-05     0.000200146
                    -6.49749e-05    -3.21515e-05        -0.539188       -0.810664     -0.000199876     0.000223062         0.187743        0.126105
253400                 -0.137569       0.0101273        6.114e-05     0.000240605        -0.643276        0.753133     -6.15997e-05     3.05924e-05
                     0.000127553     0.000209796       -0.0515802       -0.221377     -4.94716e-05     2.83752e-07         -0.57325       -0.787176
                       -0.643004        0.753082     -3.53212e-05     5.81865e-05       -0.0114883       -0.137454     -5.60481e-05     0.000205316
                    -6.02793e-05    -3.12987e-05        -0.572888       -0.786889       -0.0001768     0.000240575         0.194859        0.117034
253600                 -0.125321       0.0144498      6.14801e-05     0.000242213        -0.598184        0.791392     -5.73953e-05     3.47268e-05
                     0.000133229     0.000207957       -0.0593898       -0.220457     -4.79212e-05     8.09648e-06        -0.605991       -0.761958
                       -0.597914        0.791317     -3.01965e-05     6.36313e-05        -0.020265       -0.124506     -3.47503e-05     0.000208677
                    -5.62036e-05    -3.03097e-05        -0.605611       -0.761698     -0.000151235     0.000256081         0.201425        0.107493
253800                 -0.112955       0.0174252      6.21253e-05      0.00024429         -0.55063        0.826911     -5.30026e-05      3.8363e-05
                     0.000138451     0.000205928       -0.0671735        -0.21913     -4.55854e-05     1.63532e-05        -0.637695        -0.73536
                       -0.550371        0.826812     -2.46856e-05     6.88803e-05       -0.0274574       -0.110937     -1.35047e-05     0.000210271
                    -5.25949e-05    -2.92522e-05        -0.637299       -0.735129     -0.000123437     0.000269164         0.207409       0.0975176
254000                 -0.100607       0.0190545      6.31237e-05     0.000246807        -0.500797         0.85951     -4.84904e-05     4.15233e-05
                     0.000143188     0.000203701       -0.0749062       -0.217396     -4.23254e-05     2.49783e-05        -0.668303       -0.707421
                       -0.500555        0.859388     -1.87778e-05     7.39075e-05       -0.0330131      -0.0969217      7.51012e-06     0.000210168
                    -4.93386e-05    -2.81656e-05        -0.667894       -0.707218     -9.37426e-05     0.000279451          0.21278       0.0871444
254200                -0.0884118       0.0193533      6.45206e-05     0.000249731        -0.448879         0.88902     -4.39158e-05     4.42381e-05
                     0.000147403      0.00020128       -0.0825627       -0.215258     -3.79989e-05     3.38588e-05        -0.697761       -0.678182
                       -0.448663         0.88888     -1.24625e-05     7.86832e-05       -0.0368988      -0.0826368       2.8136e-05      0.00020846
                     -4.6347e-05    -2.70724e-05        -0.697342       -0.678007     -6.25617e-05     0.000286642         0.217509       0.0764131
254400                -0.0765024       0.0183517      6.63591e-05     0.000253024         -0.39509        0.915292     -3.93233e-05     4.65424e-05
                     0.000151048     0.000198683       -0.0901178       -0.212719     -3.24701e-05      4.2838e-05        -0.726014       -0.647686
                       -0.394904        0.915137     -5.73011e-06     8.31731e-05       -0.0391013      -0.0682639      4.82388e-05     0.000205258
                    -4.35512e-05    -2.59863e-05        -0.725587       -0.647538     -3.03536e-05     0.000290519         0.221571       0.0653653
254600                -0.0650072       0.0160936       6.8679e-05     0.000256647        -0.339651        0.938189     -3.47467e-05     4.84733e-05
                      0.00015407     0.000195949       -0.0975466       -0.209785     -2.56226e-05     5.17115e-05        -0.753009       -0.615977
                       -0.339501        0.938027      1.42717e-06     8.73377e-05       -0.0396278      -0.0539846      6.77102e-05     0.000200686
                    -4.08958e-05    -2.49152e-05        -0.752576       -0.615855      2.39196e-06     0.000290956         0.224943       0.0540444
254800                -0.0540494       0.0126365      7.15174e-05     0.000260556          -0.2828        0.957597     -3.02093e-05     5.00675e-05
                      0.00015641     0.000193135        -0.104824       -0.206462     -1.73754e-05     6.02277e-05        -0.778694       -0.583101
                       -0.282689        0.957435      9.01459e-06     9.11324e-05       -0.0385059       -0.039979      8.64694e-05     0.000194877
                     -3.8334e-05    -2.38642e-05        -0.778257       -0.583005      3.51791e-05     0.000287924         0.227603       0.0424955
255000                -0.0437445      0.00805085      7.49079e-05     0.000264703        -0.224781        0.973421     -2.57256e-05       5.136e-05
                     0.000158009     0.000190326        -0.111926        -0.20276      -7.7016e-06     6.80936e-05        -0.803018       -0.549109
                       -0.224709        0.973265      1.70335e-05     9.45062e-05       -0.0357833      -0.0264226      0.000104463     0.000187965
                    -3.58256e-05    -2.28368e-05        -0.802579       -0.549036      6.75278e-05     0.000281486         0.229535       0.0307654
255200                -0.0341994      0.00241865      7.88806e-05     0.000269038        -0.165845        0.985584     -2.13022e-05     5.23828e-05
                     0.000158816     0.000187636        -0.118828       -0.198689      3.35391e-06     7.49889e-05        -0.825934        -0.51405
                       -0.165813        0.985442      2.54798e-05     9.74024e-05        -0.031527      -0.0134843      0.000121664     0.000180085
                    -3.33336e-05    -2.18356e-05        -0.825493       -0.513999      9.89938e-05     0.000271785         0.230723       0.0189023
255400                -0.0255109     -0.00416739       8.3462e-05     0.000273509         -0.10625        0.994033     -1.69394e-05      5.3164e-05
                     0.000158793     0.000185209        -0.125507       -0.194261      1.56607e-05     8.05881e-05        -0.847392       -0.477977
                       -0.106256        0.993913      3.43421e-05     9.97578e-05       -0.0258226     -0.00132387      0.000138074     0.000171365
                    -3.08222e-05    -2.08628e-05        -0.846952       -0.477948      0.000129183     0.000259031         0.231156      0.00695583
255600                -0.0177646      -0.0116052      8.86744e-05     0.000278059       -0.0462549        0.998735     -1.26315e-05     5.37274e-05
                     0.000157927     0.000183223         -0.13194       -0.189488      2.89974e-05     8.45892e-05        -0.867347       -0.440945
                      -0.0462957        0.998642      4.35996e-05     0.000101504       -0.0187728      0.00991013      0.000153717     0.000161922
                    -2.82554e-05     -1.9921e-05        -0.866908       -0.440937      0.000157762     0.000243486         0.230825     -0.00502342
255800                -0.0110338      -0.0197851      9.45362e-05     0.000282631        0.0138794        0.999679     -8.36804e-06     5.40916e-05
                     0.000156248     0.000181883        -0.138104       -0.184386      4.30572e-05     8.67454e-05        -0.885755       -0.403011
                       0.0138089         0.99962      5.32198e-05     0.000102566       -0.0104958       0.0200823      0.000168644      0.00015186
                    -2.55936e-05    -1.90124e-05        -0.885317       -0.403022      0.000184462     0.000225446         0.229726      -0.0169839
256000               -0.00537909      -0.0285907      0.000101061     0.000287163        0.0738943        0.996875     -4.13394e-06     5.42701e-05
                     0.000153836     0.000181415        -0.143979       -0.178972      5.74679e-05     8.68946e-05        -0.902572       -0.364233
                       0.0737999        0.996853      6.31553e-05     0.000102869      -0.00112369       0.0290721      0.000182929     0.000141265
                    -2.27921e-05    -1.81396e-05        -0.902137       -0.364263       0.00020908     0.000205222         0.227855      -0.0288732
256200              -0.000847513      -0.0379013      0.000108259     0.000291592         0.133535        0.990354      9.00383e-08     5.42701e-05
                     0.000150841     0.000182051        -0.149543       -0.173263      7.18217e-05     8.49792e-05        -0.917758       -0.324673
                        0.133423        0.990372      7.33418e-05     0.000102335       0.00919959       0.0367754      0.000196665       0.0001302
                    -1.97965e-05    -1.73045e-05        -0.917325        -0.32472      0.000231473     0.000183132         0.225216      -0.0406386
256400                 0.0025276      -0.0475931      0.000116134     0.000295852         0.192551        0.980165      4.32739e-06     5.40914e-05
                     0.000147486     0.000184001        -0.154777       -0.167279      8.57125e-05     8.10538e-05        -0.931273       -0.284393
                        0.192429        0.980226      8.36952e-05     0.000100891        0.0203205       0.0431055      0.000209971     0.000118697
                     -1.6538e-05    -1.65071e-05        -0.930843       -0.284457      0.000251556     0.000159483         0.221813      -0.0522269
256600                0.00472673      -0.0575408      0.000124686     0.000299877         0.250701        0.966378        8.606e-06     5.37257e-05
                     0.000144072     0.000187433        -0.159663        -0.16104      9.87722e-05      7.5276e-05         -0.94308       -0.243458
                        0.250577        0.966483      9.41096e-05      9.8471e-05        0.0320781       0.0479941      0.000222981     0.000106756
                    -1.29257e-05    -1.57433e-05        -0.942653       -0.243538      0.000269287     0.000134564         0.217654      -0.0635848
256800                0.00574402      -0.0676196      0.000133908     0.000303596         0.307752        0.949081      1.29586e-05     5.31535e-05
                     0.000140961     0.000192437        -0.164183       -0.154568        0.0001107     6.78855e-05        -0.953144       -0.201934
                        0.307632        0.949227      0.000104457     9.50251e-05        0.0443062       0.0513917      0.000235847     9.43282e-05
                    -8.83463e-06    -1.49991e-05        -0.952719        -0.20203      0.000284664     0.000108644         0.212753      -0.0746593
257000                0.00558692      -0.0777062      0.000143791     0.000306939          0.36348        0.928377      1.74232e-05     5.23414e-05
                     0.000138552     0.000199001        -0.168322       -0.147888      0.000121282     5.91742e-05         -0.96143        -0.15989
                        0.363372        0.928563       0.00011459      9.0526e-05        0.0568359       0.0532678      0.000248734     8.13085e-05
                     -4.0864e-06    -1.42389e-05        -0.961009       -0.160002      0.000297717     8.19644e-05         0.207126      -0.0853974
257200                0.00427571       -0.087681      0.000154316     0.000309832         0.417675        0.904384       2.2044e-05     5.12362e-05
                     0.000137247        0.000207        -0.172066       -0.141023      0.000130392     4.94552e-05        -0.967909       -0.117397
                        0.417585        0.904606      0.000124342      8.4977e-05        0.0694978       0.0536111      0.000261806     6.75173e-05
                     1.58186e-06     -1.3379e-05        -0.967491       -0.117525      0.000308495     5.47381e-05         0.200792      -0.0957472
257400                0.00184273      -0.0974287      0.000165462       0.0003122         0.470139        0.877235       2.6871e-05     4.97562e-05
                     0.000137402     0.000216196          -0.1754          -0.134      0.000137988     3.90347e-05        -0.972551      -0.0745265
                        0.470072        0.877488      0.000133539     7.84204e-05        0.0821241        0.052429      0.000275213      5.2681e-05
                     8.56737e-06    -1.22265e-05        -0.972136      -0.0746717      0.000317062     2.71525e-05         0.193776       -0.105657
257600               -0.00166837        -0.10684        0.0001772     0.000313966         0.520686        0.847074      3.19593e-05     4.77779e-05
                     0.000139298     0.000226259        -0.178315       -0.126846      0.000144098     2.81909e-05        -0.975329      -0.0313537
                        0.520648        0.847352      0.000142006      7.0944e-05        0.0945507       0.0497465      0.000289057     3.64104e-05
                     1.74731e-05    -1.03307e-05        -0.974918      -0.0315161      0.000323492    -6.31224e-07         0.186104       -0.115077
257800               -0.00620367       -0.115812      0.000189496      0.00031505         0.569146        0.814054      3.73637e-05      4.5113e-05
                     0.000143112     0.000236802          -0.1808       -0.119588      0.000148801     1.71615e-05        -0.976219       0.0120454
                         0.56914        0.814352      0.000149586     6.26839e-05         0.106619       0.0456064      0.000303344     1.81807e-05
                     2.91582e-05    -6.61069e-06        -0.975813        0.011865      0.000327862    -2.84749e-05         0.177809       -0.123959
258000                   -0.0117       -0.124251      0.000202311     0.000315371         0.615363        0.778339      4.31244e-05     4.14712e-05
                     0.000148905     0.000247421        -0.182848       -0.112255      0.000152211     6.13755e-06          -0.9752       0.0555929
                        0.615391         0.77865       0.00015615     5.38237e-05         0.118179       0.0400672        0.0003179    -2.67203e-06
                     4.44586e-05     1.55896e-06        -0.974799       0.0553934       0.00033025    -5.62609e-05         0.168925       -0.132255
258200                -0.0180859       -0.132071      0.000215599     0.000314843         0.659195        0.740099      4.92271e-05     3.63982e-05
                     0.000156636     0.000257734        -0.184452       -0.104877      0.000154456    -4.73559e-06        -0.972254       0.0992088
                        0.659258        0.740416       0.00016162     4.45864e-05         0.129087       0.0332025      0.000332266    -2.69184e-05
                     6.20328e-05     1.99815e-05        -0.971859       0.0989887      0.000330731    -8.38891e-05          0.15949       -0.139919
258400                -0.0252832       -0.139196       0.00022931     0.000313374         0.700515         0.69951      5.55007e-05     2.91789e-05
                     0.000166182     0.000267406        -0.185609      -0.0974844      0.000155674    -1.53547e-05        -0.967364        0.142811
                        0.700613        0.699826      0.000165981     3.52206e-05         0.139214       0.0250992      0.000345565    -5.53291e-05
                     7.05545e-05     5.54411e-05        -0.966976        0.142569      0.000329373    -0.000111274         0.149548        -0.14691
258600                -0.0332078       -0.145557      0.000243393     0.000310867          0.73921        0.656752      6.13544e-05     1.87101e-05
                     0.000177361     0.000276169        -0.186317      -0.0901079      0.000155997    -2.56525e-05        -0.960517        0.186317
                        0.739342        0.657061      0.000169291     2.59811e-05         0.148438       0.0158566      0.000356401    -8.84543e-05
                     4.88848e-05     9.35255e-05        -0.960139        0.186051      0.000326242    -0.000138341         0.139143       -0.153186
258800                -0.0417708       -0.151099       0.00025779     0.000307217         0.775183        0.612009      6.51305e-05     3.47387e-06
                     0.000189963     0.000283823        -0.186575      -0.0827791      0.000155546    -3.55909e-05        -0.951703        0.229641
                        0.775346        0.612305      0.000171684     1.71053e-05         0.156653      0.00558432      0.000362882    -0.000126281
                     1.14415e-05     0.000101797        -0.951338        0.229349      0.000321392    -0.000165026         0.128325        -0.15871
259000                -0.0508802       -0.155774      0.000272451     0.000302306         0.808349        0.565465      6.27547e-05    -1.77102e-05
                     0.000203772     0.000290233        -0.186385      -0.0755297       0.00015443    -4.51542e-05        -0.940917        0.272697
                        0.808541        0.565742      0.000173369     8.78926e-06         0.163764     -0.00559914      0.000362907    -0.000167852
                    -1.11887e-05     8.95329e-05        -0.940568        0.272376      0.000314875     -0.00019127         0.117147       -0.163447
259200                -0.0604415       -0.159546      0.000287329     0.000296001         0.838637        0.517306      4.65688e-05    -4.20058e-05
                     0.000218579     0.000295317        -0.185754      -0.0683916      0.000152743    -5.43439e-05        -0.928155        0.315396
                        0.838854        0.517561      0.000174613     1.16588e-06         0.169692      -0.0175679      0.000354759    -0.000211082
                    -1.92631e-05     7.59752e-05        -0.927828        0.315043      0.000306731    -0.000217017         0.105663       -0.167366
259400                 -0.070359       -0.162389      0.000302397     0.000288149         0.865989        0.467717      1.14709e-05    -5.54922e-05
                     0.000234198     0.000299033        -0.184687      -0.0613969      0.000150566    -6.31732e-05        -0.913417        0.357649
                        0.866227        0.467946      0.000175725    -5.71242e-06          0.17437      -0.0301905      0.000337821    -0.000253028
                    -2.03605e-05     6.60932e-05        -0.913119        0.357261      0.000296997    -0.000242215        0.0939337        -0.17044
259600                -0.0805368       -0.164286       0.00031766     0.000278576          0.89036        0.416885     -2.75245e-05    -4.15603e-05
                     0.000250465      0.00030137        -0.183193      -0.0545774      0.000147961    -7.16631e-05        -0.896708        0.399364
                        0.890614        0.417085      0.000177037     -1.1885e-05         0.177748      -0.0433312      0.000313004    -0.000290681
                    -1.85422e-05     5.95508e-05        -0.896451         0.39894      0.000285701    -0.000266811         0.082019       -0.172643
259800                -0.0908798       -0.165229      0.000333177     0.000267085         0.911715         0.36499     -4.69598e-05    -9.48035e-06