! TOUCHSTONE file generated by CST MICROWAVE STUDIO
! Date and time: Sun Sep 21 00:08:10 2025
! Project name: biblioteca3.cst
! Parameters = {t_sub=2000; t_air=800; k=0; n=0; wavelength_nm=0; H=600; Lx=200; Ly=260; P=520}
! Header version: 2018
! Port assignment regex: !\s*Touchstone port\s*([0-9]+)\s*=\s*(CST MWS port|CST DS port)\s*([0-9]+|Zmin|Zmax)\s*\(\"(.*)\"\)(\s*mode\s*([0-9]+))?.*
! Touchstone port assignment:
! Touchstone port 1 = CST MWS port Zmin ("") mode 1
! Touchstone port 2 = CST MWS port Zmin ("") mode 2
! Touchstone port 3 = CST MWS port Zmax ("") mode 1
! Touchstone port 4 = CST MWS port Zmax ("") mode 2
! S-Parameters are not renormalized. Unphysical impedance of 50 will be written to the file.
# GHz S RI R 50
250000                 -0.217107       -0.222101      0.000243609    -0.000347083         0.375149        0.873339      0.000114155     7.27359e-05
                     0.000256287    -0.000321413         0.065448       -0.171741      0.000211489    -0.000140153        -0.888971        0.419554
                        0.375071        0.873397      0.000192686    -9.82323e-05        0.0115862        0.310372      7.58604e-06     0.000533499
                    -5.68016e-06      0.00020752        -0.888903        0.419231      1.56187e-06     0.000468325        -0.174194      -0.0586622
250200                 -0.222725       -0.205834      0.000228237    -0.000361695         0.421536        0.855121      0.000118716      7.0714e-05
                      0.00024313    -0.000336993        0.0613359       -0.176601      0.000225455    -0.000144241        -0.871762        0.453154
                        0.423451        0.852848       0.00019188    -0.000113017        0.0274847        0.302061      2.97892e-05     0.000543149
                     1.57169e-05     0.000216545        -0.871509        0.452973      1.74955e-05     0.000472265        -0.179791      -0.0513348
250400                  -0.22702       -0.189323      0.000211951    -0.000375336         0.467254        0.834247      0.000123357     6.84784e-05
                     0.000228887    -0.000352042        0.0568987       -0.181296       0.00024346    -0.000153248        -0.853262        0.486072
                        0.470238        0.829877      0.000189632    -0.000128272        0.0426299        0.292582      5.36195e-05     0.000551448
                     3.86358e-05     0.000223471        -0.852847        0.485988      3.43283e-05     0.000475745        -0.184976      -0.0436278
250600                 -0.229968       -0.172684      0.000194845    -0.000387943         0.512139        0.810731      0.000128074     6.60159e-05
                     0.000213574    -0.000366464        0.0521471       -0.185804      0.000265054    -0.000170606        -0.833499        0.518259
                        0.515477        0.804608       0.00018581    -0.000143813        0.0569141        0.281996      7.90073e-05     0.000558125
                     6.27738e-05     0.000227994        -0.832945        0.518235       5.2085e-05     0.000478677        -0.189725      -0.0355669
250800                 -0.231556       -0.156035      0.000177018    -0.000399468         0.556025        0.784592      0.000132859     6.33127e-05
                     0.000197215    -0.000380163        0.0470925       -0.190107      0.000287319     -0.00020106        -0.812502         0.54967
                        0.559193         0.77712      0.000180314    -0.000159419        0.0702338        0.270371      0.000105833       0.0005629
                     8.77552e-05      0.00022987        -0.811836        0.549675      7.07838e-05      0.00048096        -0.194015      -0.0271794
251000                 -0.231781       -0.139499      0.000158571    -0.000409877         0.598744        0.755864      0.000137706     6.03547e-05
                     0.000179845    -0.000393041        0.0417474       -0.194186      0.000302363    -0.000248764        -0.790303        0.580258
                        0.601386        0.747462      0.000173083    -0.000174841         0.082491        0.257789      0.000133921     0.000565497
                     0.000113147     0.000228937        -0.789551        0.580267      9.04349e-05     0.000482484        -0.197826      -0.0184939
251200                 -0.230654         -0.1232      0.000139604    -0.000419147         0.640129         0.72459      0.000142604     5.71273e-05
                      0.00016151    -0.000405003        0.0361255       -0.198022      0.000296754    -0.000311255        -0.766933        0.609979
                         0.64203        0.715662      0.000164105    -0.000189811        0.0935941        0.244342      0.000163039     0.000565654
                      0.00013848     0.000225125        -0.766121        0.609974      0.000111038     0.000483129        -0.201139     -0.00954013
251400                 -0.228196       -0.107259      0.000120213    -0.000427265         0.680012        0.690825      0.000147545     5.36157e-05
                     0.000142266    -0.000415953        0.0302414       -0.201599      0.000259921    -0.000372856        -0.742426        0.638791
                        0.681074         0.68174      0.000153423    -0.000204051          0.10346        0.230131      0.000192894     0.000563138
                     0.000163279     0.000218471         -0.74158        0.638759       0.00013258     0.000482762        -0.203936    -0.000348743
251600                 -0.224441      -0.0917998      0.000100494    -0.000434232         0.718227        0.654636      0.000152516     4.98045e-05
                     0.000122181    -0.000425805        0.0241103       -0.204901      0.000198405    -0.000412203        -0.716818        0.666651
                        0.718441        0.645716       0.00014114    -0.000217293         0.112015        0.215268      0.000223139     0.000557762
                     0.000187086     0.000209111        -0.715961        0.666584      0.000155031      0.00048124        -0.206203      0.00904856
251800                 -0.219437       -0.076941      8.05336e-05    -0.000440058          0.75461          0.6161      0.000157504     4.56783e-05
                      0.00010133    -0.000434473        0.0177488       -0.207911      0.000132632     -0.00042173        -0.690145         0.69352
                        0.754038        0.607613       0.00012741    -0.000229289         0.119195        0.199873      0.000253377     0.000549396
                      0.00020949     0.000197275        -0.689299        0.693414      0.000178344     0.000478412        -0.207926       0.0186193
252000                 -0.213242      -0.0627981      6.04155e-05    -0.000444758         0.788998        0.575309      0.000162493     4.12218e-05
                     7.98015e-05     -0.00044188         0.011174       -0.210616       7.7919e-05    -0.000410137        -0.662443         0.71936
                        0.787749        0.567463      0.000112443    -0.000239826          0.12495        0.184073      0.000283179     0.000537983
                      0.00023015     0.000183269        -0.661628        0.719214      0.000202448     0.000474118        -0.209095       0.0283304
252200                 -0.205927      -0.0494814      4.02153e-05    -0.000448359         0.821234        0.532365      0.000167467     3.64195e-05
                     5.76914e-05    -0.000447957       0.00440406       -0.213003      3.77845e-05    -0.000389234        -0.633751        0.744131
                        0.819449         0.52531      9.64817e-05    -0.000248741         0.129239        0.168004      0.000312098     0.000523549
                     0.000248803     0.000167446        -0.632984         0.74395      0.000227246     0.000468193          -0.2097        0.038148
252400                 -0.197575       -0.037094      2.00012e-05    -0.000450888         0.851163        0.487384      0.000172406     3.12562e-05
                     3.51036e-05    -0.000452645      -0.00254233       -0.215058      9.57779e-06    -0.000366479        -0.604109        0.767799
                        0.849001        0.481216      7.97973e-05    -0.000255924         0.132037        0.151803      0.000339688     0.000506205
                     0.000265277     0.000150191        -0.603405        0.767587      0.000252611     0.000460474        -0.209733       0.0480379
252600                 -0.188278      -0.0257313     -1.65938e-07    -0.000452381         0.878638        0.440493      0.000177288      2.5717e-05
                      1.2149e-05    -0.000455894      -0.00964553       -0.216771     -1.03823e-05     -0.00034514        -0.573558        0.790329
                        0.876261        0.435259      6.26697e-05    -0.000261324         0.133333        0.135613      0.000365526      0.00048615
                     0.000279482     0.000131889        -0.572927        0.790094      0.000278386     0.000450799         -0.20919       0.0579656
252800                 -0.178141      -0.0154791     -2.02329e-05    -0.000452873         0.903518        0.391834      0.000182091      1.9788e-05
                    -1.10563e-05    -0.000457666       -0.0168853       -0.218131         -2.5e-05    -0.000326211        -0.542138        0.811686
                        0.901083        0.387534      4.53741e-05    -0.000264949         0.133132        0.119579      0.000389233     0.000463662
                     0.000291408     0.000112911         -0.54159        0.811438      0.000304377     0.000439017        -0.208068       0.0678962
253000                 -0.167276     -0.00641276     -4.01538e-05    -0.000452402         0.925671        0.341557      0.000186787     1.34556e-05
                    -3.43917e-05    -0.000457935       -0.0242407       -0.219129     -3.62281e-05    -0.000309723        -0.509892         0.83184
                        0.923321        0.338158      2.81675e-05    -0.000266857          0.13145        0.103845      0.000410493     0.000439085
                     0.000301109     9.35951e-05        -0.509433        0.831589      0.000330355     0.000424995        -0.206364       0.0777946
253200                 -0.155803      0.00140403     -5.98899e-05    -0.000451007         0.944972        0.289827      0.000191349     6.70784e-06
                    -5.77344e-05    -0.000456687       -0.0316903       -0.219758     -4.53088e-05    -0.000295377        -0.476863        0.850759
                        0.942833        0.287263      1.12789e-05    -0.000267148         0.128323       0.0885547      0.000429062     0.000412814
                     0.000308691     7.42396e-05        -0.476497        0.850516      0.000356055     0.000408623        -0.204081       0.0876256
253400                 -0.143849      0.00792025     -7.94092e-05    -0.000448726          0.96131        0.236821      0.000195744    -4.66014e-07
                    -8.09605e-05    -0.000453921       -0.0392121        -0.22001     -5.30204e-05    -0.000282808        -0.443096        0.868414
                        0.959485        0.235004     -5.09758e-06    -0.000265958         0.123798       0.0738471      0.000444781     0.000385272
                     0.000314295      5.5095e-05        -0.442823        0.868189      0.000381179     0.000389828         -0.20122       0.0973541
253600                 -0.131546       0.0130983     -9.86857e-05    -0.000445595         0.974585        0.182722      0.000199938    -8.07482e-06
                    -0.000103947    -0.000449648       -0.0467835       -0.219881     -5.98514e-05    -0.000271675        -0.408635        0.884777
                        0.973151        0.181549     -2.08065e-05    -0.000263442         0.117941       0.0598572      0.000457575     0.000356891
                     0.000318085     3.63649e-05        -0.408455        0.884581        0.0004054     0.000368578        -0.197786        0.106945
253800                 -0.119031       0.0169147     -0.000117699    -0.000441647         0.984708        0.127728      0.000203896    -1.61252e-05
                    -0.000126573    -0.000443891       -0.0543816       -0.219366     -6.61116e-05    -0.000261688        -0.373527        0.899821
                         0.98372        0.127085     -3.57309e-05    -0.000259769         0.110829       0.0467129       0.00046745     0.000328095
                     0.000320237     1.82073e-05        -0.373435        0.899664      0.000428367     0.000344894        -0.193787        0.116364
254000                 -0.106441       0.0193604     -0.000136433    -0.000436914         0.991608       0.0720401      0.000207578    -2.46214e-05
                    -0.000148721    -0.000436685       -0.0619831       -0.218462     -7.19996e-05    -0.000252612        -0.337818        0.913521
                        0.991095       0.0718133     -4.97908e-05     -0.00025511         0.102554       0.0345337      0.000474485     0.000299277
                     0.000320929     7.39107e-07        -0.337809        0.913411      0.000449719     0.000318858        -0.189231        0.125575
254200                -0.0939145       0.0204412     -0.000154877    -0.000431424         0.995227       0.0158709      0.000210941    -3.35642e-05
                    -0.000170279    -0.000428076       -0.0695646       -0.217169     -7.76439e-05    -0.000244257        -0.301556        0.925853
                        0.995195       0.0159458     -6.29388e-05    -0.000249633        0.0932198        0.023429       0.00047882     0.000270793
                     0.000320333    -1.59587e-05        -0.301623        0.925799      0.000469095     0.000290613        -0.184129        0.134546
254400                -0.0815884       0.0201775     -0.000173022      -0.0004252         0.995524      -0.0405636      0.000213941    -4.29511e-05
                    -0.000191139    -0.000418119       -0.0771023       -0.215487     -8.31286e-05    -0.000236471         -0.26479        0.936793
                         0.99596      -0.0402942     -7.51561e-05    -0.000243498        0.0829415       0.0134968      0.000480639      0.00024295
                     0.000318612    -3.18355e-05        -0.264923        0.936802      0.000486146     0.000260375        -0.178493        0.143241
254600                -0.0695967       0.0186042     -0.000190864    -0.000418261         0.992474      -0.0970425      0.000216532    -5.27758e-05
                    -0.000211204    -0.000406878       -0.0845724       -0.213416     -8.85089e-05     -0.00022913        -0.227567        0.946322
                        0.993347      -0.0966762     -8.64471e-05     -0.00023685        0.0718446      0.00482245      0.000480162     0.000215999
                     0.000315916    -4.68652e-05        -0.227758        0.946397      0.000500554     0.000228421        -0.172338        0.151629
254800                -0.0580684       0.0157705     -0.000208398    -0.000410624         0.986073       -0.153343      0.000218665     -6.3027e-05
                    -0.000230381    -0.000394427       -0.0919508       -0.210961     -9.38209e-05    -0.000222135        -0.189939        0.954418
                        0.987338       -0.152965     -9.68343e-05    -0.000229821        0.0600628     -0.00252268      0.000477627     0.000190142
                     0.000312379    -6.10415e-05        -0.190177        0.954565      0.000512046     0.000195092        -0.165681        0.159676
255000                -0.0471261       0.0117389     -0.000225624    -0.000402297          0.97633        -0.20924       0.00022029    -7.36889e-05
                    -0.000248587    -0.000380844       -0.0992139       -0.208125      -9.9088e-05    -0.000215404        -0.151956        0.961063
                        0.977932       -0.208921     -0.000106354    -0.000222526        0.0477365     -0.00848179      0.000473282     0.000165525
                     0.000308122    -7.43729e-05         -0.15223        0.961283      0.000520406      0.00016078        -0.158541         0.16735
255200                -0.0368846      0.00658444     -0.000242538    -0.000393286         0.963276       -0.264512      0.000221356    -8.47399e-05
                    -0.000265748    -0.000366214        -0.106338       -0.204915     -0.000104325    -0.000208872        -0.113669         0.96624
                        0.964488       -0.264127     -0.000115053    -0.000215067        0.0350111      -0.0130134       0.00046737      0.00014225
                     0.000303249     -8.6879e-05        -0.113969        0.966533      0.000525491     0.000125914        -0.150937        0.174621
255400                -0.0274494     0.000393618     -0.000259141     -0.00038359         0.946957       -0.318938      0.000221811    -9.61526e-05
                    -0.000281798    -0.000350625        -0.113299       -0.201339     -0.000109541    -0.000202481       -0.0751302        0.969933
                        0.947918       -0.318514     -0.000122985     -0.00020753        0.0220351       -0.016092      0.000460127     0.000120377
                      0.00029785     -9.8587e-05        -0.075445        0.970299      0.000527234     9.09474e-05        -0.142893        0.181459
255600                -0.0189152     -0.00673669     -0.000275428    -0.000373205         0.927439       -0.372303      0.000221602    -0.000107893
                     -0.00029668    -0.000334168        -0.120075       -0.197404      -0.00011474    -0.000196185       -0.0363935        0.972128
                        0.928279       -0.371885     -0.000130205    -0.000199988       0.00895855       -0.017708      0.000451773     9.99287e-05
                     0.000292003     -0.00010953       -0.0367122        0.972563       0.00052565     5.63353e-05        -0.134433        0.187834
255800                -0.0113654      -0.0147007     -0.000291396    -0.000362118         0.904803       -0.424398      0.000220678    -0.000119921
                    -0.000310347    -0.000316939        -0.126642       -0.193123     -0.000119924    -0.000189944       0.00248789        0.972812
                         0.90564       -0.424047     -0.000136773    -0.000192502      -0.00406928      -0.0178675       0.00044251     8.09011e-05
                     0.000285773    -0.000119743       0.00217511        0.973312      0.000520832     2.25206e-05        -0.125582         0.19372
256000               -0.00487073      -0.0233854     -0.000307036    -0.000350314         0.879146       -0.475023      0.000218991    -0.000132189
                    -0.000322758     -0.00029903        -0.132978       -0.188507     -0.000125094    -0.000183724        0.0414593        0.971972
                        0.880087       -0.474812     -0.000142748    -0.000185124       -0.0169013      -0.0165928      0.000432521     6.32668e-05
                     0.000279215    -0.000129264        0.0411618        0.972533      0.000512951    -1.00851e-05         -0.11637        0.199089
256200               0.000511169      -0.0326715     -0.000322337    -0.000337772         0.850582       -0.523985      0.000216492    -0.000144643
                    -0.000333883    -0.000280538        -0.139061        -0.18357     -0.000130246    -0.000177495        0.0804655        0.969601
                        0.851717       -0.524003      -0.00014819    -0.000177896       -0.0293946      -0.0139209      0.000421964     4.69807e-05
                     0.000272371    -0.000138129        0.0801917        0.970215      0.000502237    -4.11143e-05        -0.106826        0.203916
256400                0.00473624       -0.042436     -0.000337284    -0.000324462         0.819236       -0.571105      0.000213136     -0.00015722
                    -0.000343696    -0.000261557        -0.144871       -0.178326     -0.000135378     -0.00017123          0.11945        0.965688
                        0.820639       -0.571448     -0.000153158    -0.000170853        -0.041412     -0.00990366      0.000410981     3.19856e-05
                     0.000265279    -0.000146378         0.119208        0.966349      0.000488971    -7.02551e-05       -0.0969808        0.208178
256600                0.00777427      -0.0525528     -0.000351854    -0.000310354         0.785248       -0.616214      0.000208886    -0.000169852
                    -0.000352181    -0.000242181        -0.150388       -0.172794     -0.000140484    -0.000164908         0.158357        0.960227
                        0.786974       -0.616987     -0.000157707    -0.000164024       -0.0528235     -0.00460629      0.000399692     1.82157e-05
                     0.000257968    -0.000154044         0.158151        0.960927      0.000473473    -9.72571e-05       -0.0868685        0.211854
256800                0.00960883      -0.0628952     -0.000366017     -0.00029541         0.748768       -0.659158      0.000203705    -0.000182463
                    -0.000359327    -0.000222501        -0.155591       -0.166989     -0.000145561    -0.000158506         0.197128        0.953214
                        0.750678       -0.660316     -0.000161896    -0.000157432       -0.0635077      0.00189331      0.000388197     5.59988e-06
                     0.000250459    -0.000161163         0.196964        0.953943       0.00045608    -0.000121935        -0.076524        0.214921
257000                 0.0102372       -0.073337     -0.000379736    -0.000279586         0.709955       -0.699794      0.000197564    -0.000194969
                    -0.000365128    -0.000202608        -0.160463       -0.160933     -0.000150603    -0.000152007         0.235704        0.944644
                        0.711686        -0.70104     -0.000165781    -0.000151099       -0.0733532      0.00950591      0.000376582    -5.93523e-06
                     0.000242769    -0.000167766         0.235586        0.945394      0.000437139    -0.000144165       -0.0659838        0.217364
257200                0.00966985      -0.0837542     -0.000392962    -0.000262838         0.668978       -0.737995      0.000190444    -0.000207281
                    -0.000369585    -0.000182589        -0.164986       -0.154646     -0.000155602    -0.000145392         0.274028        0.934516
                        0.670515       -0.739297     -0.000169417     -0.00014504       -0.0822595       0.0181322      0.000364915    -1.64635e-05
                      0.00023491    -0.000173884         0.273958        0.935277      0.000416991    -0.000163885       -0.0552859        0.219164
257400                0.00793002      -0.0940261     -0.000405633    -0.000245115         0.626009       -0.773651      0.000182329    -0.000219305
                      -0.0003727    -0.000162531        -0.169146        -0.14815     -0.000160551    -0.000138647         0.312038        0.922831
                        0.627347       -0.774976     -0.000172863     -0.00013927       -0.0901378       0.0276644      0.000353253    -2.60578e-05
                     0.000226889    -0.000179545         0.312017        0.923594      0.000395961    -0.000181084       -0.0444699        0.220307
257600                0.00505292       -0.104037     -0.000417673    -0.000226366         0.581228       -0.806662      0.000173216    -0.000230939
                    -0.000374484    -0.000142518        -0.172926       -0.141469     -0.000165443    -0.000131756         0.349674         0.90959
                        0.582366       -0.807981     -0.000176179      -0.0001338       -0.0969117       0.0379872       0.00034164    -3.47883e-05
                     0.000218711    -0.000184775         0.349701        0.910346      0.000374351    -0.000195797       -0.0335766        0.220782
257800                0.00108488       -0.113678     -0.000428992     -0.00020654         0.534817       -0.836947      0.000163109    -0.000242077
                    -0.000374946    -0.000122631        -0.176314       -0.134627     -0.000170269    -0.000124705         0.386876        0.894797
                        0.535761       -0.838231      -0.00017943    -0.000128639        -0.102518       0.0489799      0.000330108    -4.27225e-05
                     0.000210378    -0.000189598         0.386949        0.895538      0.000352436    -0.000208095       -0.0226481        0.220579
258000               -0.00391754       -0.122847     -0.000439476    -0.000185585          0.48696       -0.864437      0.000152022     -0.00025261
                    -0.000374103    -0.000102951        -0.179298        -0.12765     -0.000175021    -0.000117483          0.42358        0.878459
                        0.487721       -0.865664     -0.000182684    -0.000123791        -0.106906       0.0605173      0.000318682     -4.9924e-05
                     0.000201888    -0.000194035         0.423697        0.879177      0.000330458    -0.000218078       -0.0117278        0.219691
258200               -0.00988867       -0.131448     -0.000448995    -0.000163459         0.437841       -0.889079      0.000139982    -0.000262422
                    -0.000371971    -8.35559e-05        -0.181869       -0.120564     -0.000179687    -0.000110075         0.459724        0.860584
                        0.438433       -0.890228      -0.00018602    -0.000119256        -0.110039       0.0724718      0.000307377    -5.64523e-05
                     0.000193237    -0.000198107         0.459882        0.861271      0.000308628    -0.000225867     -0.000859864        0.218112
258400                -0.0167548       -0.139397      -0.00045739    -0.000140123         0.387644       -0.910833      0.000127025    -0.000271396
                    -0.000368571    -6.45241e-05        -0.184017       -0.113398     -0.000184258    -0.000102472         0.495245        0.841182
                        0.388085       -0.911888     -0.000189522    -0.000115027        -0.111894       0.0847141      0.000296203    -6.23631e-05
                     0.000184421     -0.00020183         0.495438        0.841831      0.000287125    -0.000231596       0.00991046        0.215841
258600                -0.0244354       -0.146617      -0.00046448    -0.000115558         0.336551       -0.929672      0.000113201    -0.000279409
                    -0.000363924     -4.5932e-05        -0.185736       -0.106181     -0.000188721    -9.46611e-05         0.530079        0.820265
                        0.336861       -0.930621     -0.000193289    -0.000111086        -0.112459       0.0971155      0.000285162    -6.77075e-05
                     0.000175433    -0.000205221         0.530302        0.820872      0.000266099    -0.000235406        0.0205372        0.212879
258800                -0.0328443       -0.153042     -0.000470053    -8.97594e-05         0.284741       -0.945582      9.85706e-05    -0.000286332
                    -0.000358056    -2.78563e-05        -0.187022      -0.0989412     -0.000193065    -8.66323e-05         0.564161         0.79785
                        0.284939       -0.946417     -0.000197431    -0.000107399        -0.111738        0.109548      0.000274252    -7.25324e-05
                     0.000166265    -0.000208295         0.564408         0.79841      0.000245669    -0.000237441        0.0309739         0.20923
259000                -0.0418906       -0.158615      -0.00047387    -6.27553e-05          0.23239       -0.958558      8.32117e-05    -0.000292033
                    -0.000350994    -1.03735e-05        -0.187871      -0.0917092     -0.000197276    -7.83756e-05         0.597426        0.773954
                        0.232496       -0.959277      -0.00020207    -0.000103911        -0.109744        0.121887      0.000263464    -7.68806e-05
                     0.000156909    -0.000211064         0.597691        0.774463      0.000225934    -0.000237846        0.0411734          0.2049
259200                -0.0514802       -0.163291     -0.000475666    -3.46095e-05         0.179667        -0.96861      6.72183e-05     -0.00029637
                    -0.000342767     6.43913e-06        -0.188284      -0.0845158      -0.00020134    -6.98813e-05          0.62981        0.748597
                        0.179702       -0.969212     -0.000207341    -0.000100532        -0.106503        0.134012      0.000252787    -8.07906e-05
                     0.000147354     -0.00021354         0.630084        0.749052      0.000206966    -0.000236758        0.0510887          0.1999
259400                -0.0615168       -0.167033     -0.000475148    -5.43482e-06         0.126741       -0.975755      5.07057e-05     -0.00029919
                    -0.000333409     2.25035e-05        -0.188261       -0.077392     -0.000205242    -6.11405e-05         0.661245        0.721803
                        0.126722       -0.976243     -0.000213386     -9.7132e-05        -0.102053        0.145805      0.000242203    -8.42967e-05
                     0.000137592    -0.000215731         0.661523        0.722203      0.000188821     -0.00023431        0.0606723        0.194242
259600                -0.0719029       -0.169816     -0.000472006     2.45956e-05        0.0737699        -0.98002      3.38174e-05    -0.000300327
                    -0.000322956     3.77402e-05        -0.187807      -0.0703691     -0.000208964    -5.21447e-05         0.691667        0.693596
                       0.0737148       -0.980399      -0.00022034    -9.35233e-05       -0.0964414        0.157157      0.000231691     -8.7429e-05
                     0.000127611    -0.000217647         0.691941        0.693942       0.00017154    -0.000230626        0.0698771        0.187943
259800                 -0.082541       -0.171624     -0.000465925     5.52352e-05        0.0209098        -0.98144      1.67356e-05    -0.000299598